
     Program PROJWFC v.5.0.2 (svn rev. 9656) starts on 26Aug2014 at 11:49:48 

     This program is part of the open-source Quantum ESPRESSO suite
     for quantum simulation of materials; please cite
         "P. Giannozzi et al., J. Phys.:Condens. Matter 21 395502 (2009);
          URL http://www.quantum-espresso.org", 
     in publications or presentations arising from this work. More details at
     http://www.quantum-espresso.org/quote.php

     Parallel version (MPI), running on     1 processors

   Info: using nr1, nr2, nr3 values from input

   Info: using nr1s, nr2s, nr3s values from input

     IMPORTANT: XC functional enforced from input :
     Exchange-correlation      = SLA  PW   PBE  PBE ( 1 4 3 4 0)
     EXX-fraction              =        0.00
     Any further DFT definition will be discarded
     Please, verify this is what you really want

 
     G-vector sticks info
     --------------------
     sticks:   dense  smooth     PW     G-vecs:    dense   smooth      PW
     Sum        3077     973    305                81835    14755    2581
 

     Check: negative/imaginary core charge=   -0.000011    0.000000

     negative rho (up, down):  0.127E-01 0.127E-01

     Gaussian broadening (read from file): ngauss,degauss=   1    0.010000


     Calling projwave .... 

     Atomic states used for projection
     (read from pseudopotential files):

     state #   1: atom   1 (Ti0), wfc  1 (l=0 m= 1)
     state #   2: atom   1 (Ti0), wfc  2 (l=1 m= 1)
     state #   3: atom   1 (Ti0), wfc  2 (l=1 m= 2)
     state #   4: atom   1 (Ti0), wfc  2 (l=1 m= 3)
     state #   5: atom   1 (Ti0), wfc  3 (l=0 m= 1)
     state #   6: atom   1 (Ti0), wfc  4 (l=2 m= 1)
     state #   7: atom   1 (Ti0), wfc  4 (l=2 m= 2)
     state #   8: atom   1 (Ti0), wfc  4 (l=2 m= 3)
     state #   9: atom   1 (Ti0), wfc  4 (l=2 m= 4)
     state #  10: atom   1 (Ti0), wfc  4 (l=2 m= 5)
     state #  11: atom   2 (Ti0), wfc  1 (l=0 m= 1)
     state #  12: atom   2 (Ti0), wfc  2 (l=1 m= 1)
     state #  13: atom   2 (Ti0), wfc  2 (l=1 m= 2)
     state #  14: atom   2 (Ti0), wfc  2 (l=1 m= 3)
     state #  15: atom   2 (Ti0), wfc  3 (l=0 m= 1)
     state #  16: atom   2 (Ti0), wfc  4 (l=2 m= 1)
     state #  17: atom   2 (Ti0), wfc  4 (l=2 m= 2)
     state #  18: atom   2 (Ti0), wfc  4 (l=2 m= 3)
     state #  19: atom   2 (Ti0), wfc  4 (l=2 m= 4)
     state #  20: atom   2 (Ti0), wfc  4 (l=2 m= 5)
     state #  21: atom   3 (O1 ), wfc  1 (l=0 m= 1)
     state #  22: atom   3 (O1 ), wfc  2 (l=1 m= 1)
     state #  23: atom   3 (O1 ), wfc  2 (l=1 m= 2)
     state #  24: atom   3 (O1 ), wfc  2 (l=1 m= 3)
     state #  25: atom   4 (O1 ), wfc  1 (l=0 m= 1)
     state #  26: atom   4 (O1 ), wfc  2 (l=1 m= 1)
     state #  27: atom   4 (O1 ), wfc  2 (l=1 m= 2)
     state #  28: atom   4 (O1 ), wfc  2 (l=1 m= 3)
     state #  29: atom   5 (O1 ), wfc  1 (l=0 m= 1)
     state #  30: atom   5 (O1 ), wfc  2 (l=1 m= 1)
     state #  31: atom   5 (O1 ), wfc  2 (l=1 m= 2)
     state #  32: atom   5 (O1 ), wfc  2 (l=1 m= 3)
     state #  33: atom   6 (O1 ), wfc  1 (l=0 m= 1)
     state #  34: atom   6 (O1 ), wfc  2 (l=1 m= 1)
     state #  35: atom   6 (O1 ), wfc  2 (l=1 m= 2)
     state #  36: atom   6 (O1 ), wfc  2 (l=1 m= 3)

 k =   0.0000000000  0.0000000000  0.0000000000
==== e(   1) =   -48.19293 eV ==== 
     psi = 0.491*[#   1]+0.491*[#  11]+0.006*[#   5]+0.006*[#  15]+0.001*[#  21]+
          +0.001*[#  25]+0.001*[#  29]+0.001*[#  33]+
    |psi|^2 = 1.000
==== e(   2) =   -48.17871 eV ==== 
     psi = 0.483*[#   1]+0.483*[#  11]+0.004*[#  23]+0.004*[#  24]+0.004*[#  27]+
          +0.004*[#  28]+0.004*[#  31]+0.004*[#  32]+0.004*[#  35]+0.004*[#  36]+
          +0.001*[#   5]+0.001*[#  15]+
    |psi|^2 = 1.000
==== e(   3) =   -24.49924 eV ==== 
     psi = 0.244*[#   3]+0.244*[#   4]+0.244*[#  13]+0.244*[#  14]+0.006*[#  21]+
          +0.006*[#  25]+0.006*[#  29]+0.006*[#  33]+
    |psi|^2 = 1.000
==== e(   4) =   -24.49924 eV ==== 
     psi = 0.244*[#   3]+0.244*[#   4]+0.244*[#  13]+0.244*[#  14]+0.006*[#  21]+
          +0.006*[#  25]+0.006*[#  29]+0.006*[#  33]+
    |psi|^2 = 1.000
==== e(   5) =   -24.34230 eV ==== 
     psi = 0.246*[#   3]+0.246*[#   4]+0.246*[#  13]+0.246*[#  14]+0.002*[#  23]+
          +0.002*[#  24]+0.002*[#  27]+0.002*[#  28]+0.002*[#  31]+0.002*[#  32]+
          +0.002*[#  35]+0.002*[#  36]+
    |psi|^2 = 1.000
==== e(   6) =   -24.34230 eV ==== 
     psi = 0.246*[#   3]+0.246*[#   4]+0.246*[#  13]+0.246*[#  14]+0.002*[#  23]+
          +0.002*[#  24]+0.002*[#  27]+0.002*[#  28]+0.002*[#  31]+0.002*[#  32]+
          +0.002*[#  35]+0.002*[#  36]+
    |psi|^2 = 1.000
==== e(   7) =   -24.29696 eV ==== 
     psi = 0.492*[#   2]+0.492*[#  12]+0.004*[#  22]+0.004*[#  26]+0.004*[#  30]+
          +0.004*[#  34]+
    |psi|^2 = 1.000
==== e(   8) =   -24.26693 eV ==== 
     psi = 0.496*[#   2]+0.496*[#  12]+0.002*[#  22]+0.002*[#  26]+0.002*[#  30]+
          +0.002*[#  34]+
    |psi|^2 = 1.000
==== e(   9) =    -9.35751 eV ==== 
     psi = 0.163*[#  21]+0.163*[#  25]+0.163*[#  29]+0.163*[#  33]+0.162*[#   5]+
          +0.162*[#  15]+0.008*[#   1]+0.008*[#  11]+0.002*[#   6]+0.002*[#  16]+
    |psi|^2 = 0.999
==== e(  10) =    -8.25553 eV ==== 
     psi = 0.212*[#  21]+0.212*[#  25]+0.212*[#  29]+0.212*[#  33]+0.029*[#  10]+
          +0.029*[#  20]+0.023*[#   6]+0.023*[#  16]+0.020*[#   5]+0.020*[#  15]+
          +0.001*[#   1]+0.001*[#  11]+
    |psi|^2 = 0.999
==== e(  11) =    -7.49249 eV ==== 
     psi = 0.243*[#  21]+0.243*[#  25]+0.243*[#  29]+0.243*[#  33]+0.006*[#   3]+
          +0.006*[#   4]+0.006*[#  13]+0.006*[#  14]+
    |psi|^2 = 0.997
==== e(  12) =    -7.49249 eV ==== 
     psi = 0.243*[#  21]+0.243*[#  25]+0.243*[#  29]+0.243*[#  33]+0.006*[#   3]+
          +0.006*[#   4]+0.006*[#  13]+0.006*[#  14]+
    |psi|^2 = 0.997
==== e(  13) =     3.04947 eV ==== 
     psi = 0.087*[#  23]+0.087*[#  24]+0.087*[#  27]+0.087*[#  28]+0.087*[#  31]+
          +0.087*[#  32]+0.087*[#  35]+0.087*[#  36]+0.050*[#   5]+0.050*[#  10]+
          +0.050*[#  15]+0.050*[#  20]+0.038*[#   6]+0.038*[#  16]+0.008*[#   1]+
          +0.008*[#  11]+0.003*[#  21]+0.003*[#  25]+0.003*[#  29]+0.003*[#  33]+
    |psi|^2 = 0.998
==== e(  14) =     3.47400 eV ==== 
     psi = 0.156*[#   6]+0.156*[#  16]+0.077*[#  23]+0.077*[#  24]+0.077*[#  27]+
          +0.077*[#  28]+0.077*[#  31]+0.077*[#  32]+0.077*[#  35]+0.077*[#  36]+
          +0.033*[#  10]+0.033*[#  20]+0.002*[#   5]+0.002*[#  15]+
    |psi|^2 = 0.998
==== e(  15) =     4.03263 eV ==== 
     psi = 0.120*[#   9]+0.120*[#  19]+0.095*[#  23]+0.095*[#  24]+0.095*[#  27]+
          +0.095*[#  28]+0.095*[#  31]+0.095*[#  32]+0.095*[#  35]+0.095*[#  36]+
    |psi|^2 = 0.997
==== e(  16) =     4.86314 eV ==== 
     psi = 0.162*[#  22]+0.162*[#  26]+0.162*[#  30]+0.162*[#  34]+0.088*[#   7]+
          +0.088*[#   8]+0.088*[#  17]+0.088*[#  18]+
    |psi|^2 = 0.999
==== e(  17) =     4.86314 eV ==== 
     psi = 0.162*[#  22]+0.162*[#  26]+0.162*[#  30]+0.162*[#  34]+0.088*[#   7]+
          +0.088*[#   8]+0.088*[#  17]+0.088*[#  18]+
    |psi|^2 = 0.999
==== e(  18) =     6.19799 eV ==== 
     psi = 0.122*[#  23]+0.122*[#  24]+0.122*[#  27]+0.122*[#  28]+0.122*[#  31]+
          +0.122*[#  32]+0.122*[#  35]+0.122*[#  36]+0.003*[#   3]+0.003*[#   4]+
          +0.003*[#  13]+0.003*[#  14]+
    |psi|^2 = 0.986
==== e(  19) =     6.19799 eV ==== 
     psi = 0.122*[#  23]+0.122*[#  24]+0.122*[#  27]+0.122*[#  28]+0.122*[#  31]+
          +0.122*[#  32]+0.122*[#  35]+0.122*[#  36]+0.003*[#   3]+0.003*[#   4]+
          +0.003*[#  13]+0.003*[#  14]+
    |psi|^2 = 0.986
==== e(  20) =     6.82447 eV ==== 
     psi = 0.244*[#  22]+0.244*[#  26]+0.244*[#  30]+0.244*[#  34]+0.007*[#   2]+
          +0.007*[#  12]+
    |psi|^2 = 0.993
==== e(  21) =     8.00846 eV ==== 
     psi = 0.247*[#  22]+0.247*[#  26]+0.247*[#  30]+0.247*[#  34]+0.004*[#   2]+
          +0.004*[#  12]+
    |psi|^2 = 0.995
==== e(  22) =     8.28312 eV ==== 
     psi = 0.124*[#  23]+0.124*[#  24]+0.124*[#  27]+0.124*[#  28]+0.124*[#  31]+
          +0.124*[#  32]+0.124*[#  35]+0.124*[#  36]+
    |psi|^2 = 0.994
==== e(  23) =     8.28312 eV ==== 
     psi = 0.124*[#  23]+0.124*[#  24]+0.124*[#  27]+0.124*[#  28]+0.124*[#  31]+
          +0.124*[#  32]+0.124*[#  35]+0.124*[#  36]+
    |psi|^2 = 0.994
==== e(  24) =     8.59358 eV ==== 
     psi = 0.115*[#  23]+0.115*[#  24]+0.115*[#  27]+0.115*[#  28]+0.115*[#  31]+
          +0.115*[#  32]+0.115*[#  35]+0.115*[#  36]+0.038*[#   9]+0.038*[#  19]+
    |psi|^2 = 0.998
==== e(  25) =    10.64284 eV ==== 
     psi = 0.362*[#  10]+0.362*[#  20]+0.127*[#   6]+0.127*[#  16]+0.002*[#   5]+
          +0.002*[#  15]+
    |psi|^2 = 0.991
==== e(  26) =    11.05172 eV ==== 
     psi = 0.386*[#   6]+0.386*[#  16]+0.031*[#  10]+0.031*[#  20]+0.025*[#   5]+
          +0.025*[#  15]+0.012*[#  23]+0.012*[#  24]+0.012*[#  27]+0.012*[#  28]+
          +0.012*[#  31]+0.012*[#  32]+0.012*[#  35]+0.012*[#  36]+0.001*[#  21]+
          +0.001*[#  25]+0.001*[#  29]+0.001*[#  33]+
    |psi|^2 = 0.987
==== e(  27) =    11.20661 eV ==== 
     psi = 0.249*[#   7]+0.249*[#   8]+0.249*[#  17]+0.249*[#  18]+
    |psi|^2 = 0.995
==== e(  28) =    11.20661 eV ==== 
     psi = 0.249*[#   7]+0.249*[#   8]+0.249*[#  17]+0.249*[#  18]+
    |psi|^2 = 0.995
==== e(  29) =    11.21466 eV ==== 
     psi = 0.460*[#   9]+0.460*[#  19]+0.010*[#  23]+0.010*[#  24]+0.010*[#  27]+
          +0.010*[#  28]+0.010*[#  31]+0.010*[#  32]+0.010*[#  35]+0.010*[#  36]+
    |psi|^2 = 0.996
==== e(  30) =    12.85091 eV ==== 
     psi = 0.385*[#  10]+0.385*[#  20]+0.044*[#   6]+0.044*[#  16]+0.026*[#  21]+
          +0.026*[#  25]+0.026*[#  29]+0.026*[#  33]+0.004*[#  23]+0.004*[#  24]+
          +0.004*[#  27]+0.004*[#  28]+0.004*[#  31]+0.004*[#  32]+0.004*[#  35]+
          +0.004*[#  36]+
    |psi|^2 = 0.994
==== e(  31) =    13.15787 eV ==== 
     psi = 0.379*[#   9]+0.379*[#  19]+0.030*[#  23]+0.030*[#  24]+0.030*[#  27]+
          +0.030*[#  28]+0.030*[#  31]+0.030*[#  32]+0.030*[#  35]+0.030*[#  36]+
    |psi|^2 = 0.996
==== e(  32) =    15.42580 eV ==== 
     psi = 0.161*[#   7]+0.161*[#   8]+0.161*[#  17]+0.161*[#  18]+0.087*[#  22]+
          +0.087*[#  26]+0.087*[#  30]+0.087*[#  34]+
    |psi|^2 = 0.994
==== e(  33) =    15.42580 eV ==== 
     psi = 0.161*[#   7]+0.161*[#   8]+0.161*[#  17]+0.161*[#  18]+0.087*[#  22]+
          +0.087*[#  26]+0.087*[#  30]+0.087*[#  34]+
    |psi|^2 = 0.994
==== e(  34) =    15.86087 eV ==== 
     psi = 0.151*[#   6]+0.151*[#  16]+0.087*[#  10]+0.087*[#  20]+0.079*[#   5]+
          +0.079*[#  15]+0.036*[#  23]+0.036*[#  24]+0.036*[#  27]+0.036*[#  28]+
          +0.036*[#  31]+0.036*[#  32]+0.036*[#  35]+0.036*[#  36]+0.017*[#  21]+
          +0.017*[#  25]+0.017*[#  29]+0.017*[#  33]+
    |psi|^2 = 0.994
==== e(  35) =    16.56238 eV ==== 
     psi = 0.232*[#   5]+0.232*[#  15]+0.064*[#   6]+0.064*[#  16]+0.061*[#  21]+
          +0.061*[#  25]+0.061*[#  29]+0.061*[#  33]+0.014*[#  10]+0.014*[#  20]+
          +0.010*[#  23]+0.010*[#  24]+0.010*[#  27]+0.010*[#  28]+0.010*[#  31]+
          +0.010*[#  32]+0.010*[#  35]+0.010*[#  36]+
    |psi|^2 = 0.941
==== e(  36) =    20.35015 eV ==== 
     psi = 
    |psi|^2 = 0.006
==== e(  37) =    20.35015 eV ==== 
     psi = 
    |psi|^2 = 0.006
==== e(  38) =    22.81832 eV ==== 
     psi = 
    |psi|^2 = 0.005
==== e(  39) =    24.26640 eV ==== 
     psi = 0.030*[#   5]+0.030*[#  15]+0.004*[#   6]+0.004*[#  16]+0.003*[#  10]+
          +0.003*[#  20]+0.002*[#  23]+0.002*[#  24]+0.002*[#  27]+0.002*[#  28]+
          +0.002*[#  31]+0.002*[#  32]+0.002*[#  35]+0.002*[#  36]+
    |psi|^2 = 0.095
==== e(  40) =    25.29405 eV ==== 
     psi = 0.014*[#   5]+0.014*[#  15]+0.006*[#  21]+0.006*[#  25]+0.006*[#  29]+
          +0.006*[#  33]+0.002*[#  10]+0.002*[#  20]+
    |psi|^2 = 0.057
==== e(  41) =    26.63493 eV ==== 
     psi = 0.367*[#   5]+0.367*[#  15]+0.016*[#  23]+0.016*[#  24]+0.016*[#  27]+
          +0.016*[#  28]+0.016*[#  31]+0.016*[#  32]+0.016*[#  35]+0.016*[#  36]+
          +0.006*[#   1]+0.006*[#  11]+0.006*[#  21]+0.006*[#  25]+0.006*[#  29]+
          +0.006*[#  33]+0.001*[#   6]+0.001*[#  16]+
    |psi|^2 = 0.899
==== e(  42) =    27.53861 eV ==== 
     psi = 0.001*[#  23]+0.001*[#  24]+0.001*[#  27]+0.001*[#  28]+0.001*[#  31]+
          +0.001*[#  32]+0.001*[#  35]+0.001*[#  36]+
    |psi|^2 = 0.008
==== e(  43) =    27.53861 eV ==== 
     psi = 0.001*[#  23]+0.001*[#  24]+0.001*[#  27]+0.001*[#  28]+0.001*[#  31]+
          +0.001*[#  32]+0.001*[#  35]+0.001*[#  36]+
    |psi|^2 = 0.008
==== e(  44) =    28.16102 eV ==== 
     psi = 
    |psi|^2 = 0.000
==== e(  45) =    29.90496 eV ==== 
     psi = 
    |psi|^2 = 0.000
==== e(  46) =    31.28060 eV ==== 
     psi = 0.001*[#  22]+0.001*[#  26]+0.001*[#  30]+0.001*[#  34]+
    |psi|^2 = 0.004
==== e(  47) =    32.27993 eV ==== 
     psi = 
    |psi|^2 = 0.000
==== e(  48) =    32.27993 eV ==== 
     psi = 
    |psi|^2 = 0.000
==== e(  49) =    33.44723 eV ==== 
     psi = 0.001*[#   9]+0.001*[#  19]+
    |psi|^2 = 0.003
==== e(  50) =    33.97838 eV ==== 
     psi = 
    |psi|^2 = 0.001
==== e(  51) =    33.97838 eV ==== 
     psi = 
    |psi|^2 = 0.001
==== e(  52) =    34.50393 eV ==== 
     psi = 0.001*[#   7]+0.001*[#   8]+0.001*[#  17]+0.001*[#  18]+
    |psi|^2 = 0.007
==== e(  53) =    34.50393 eV ==== 
     psi = 0.001*[#   7]+0.001*[#   8]+0.001*[#  17]+0.001*[#  18]+
    |psi|^2 = 0.007
==== e(  54) =    34.52731 eV ==== 
     psi = 
    |psi|^2 = 0.002
==== e(  55) =    35.32842 eV ==== 
     psi = 0.003*[#  10]+0.003*[#  20]+
    |psi|^2 = 0.007
==== e(  56) =    37.03388 eV ==== 
     psi = 0.002*[#   5]+0.002*[#   6]+0.002*[#  15]+0.002*[#  16]+
    |psi|^2 = 0.008
==== e(  57) =    39.45087 eV ==== 
     psi = 0.001*[#   5]+0.001*[#  15]+
    |psi|^2 = 0.006
==== e(  58) =    40.10691 eV ==== 
     psi = 
    |psi|^2 = 0.001
==== e(  59) =    40.22285 eV ==== 
     psi = 0.004*[#   5]+0.004*[#  15]+
    |psi|^2 = 0.012
==== e(  60) =    40.63777 eV ==== 
     psi = 
    |psi|^2 = 0.002
==== e(  61) =    40.63777 eV ==== 
     psi = 
    |psi|^2 = 0.002
==== e(  62) =    41.68130 eV ==== 
     psi = 
    |psi|^2 = 0.000
==== e(  63) =    41.91425 eV ==== 
     psi = 
    |psi|^2 = 0.000
==== e(  64) =    41.91425 eV ==== 
     psi = 
    |psi|^2 = 0.000
==== e(  65) =    44.29442 eV ==== 
     psi = 
    |psi|^2 = 0.002
==== e(  66) =    44.29442 eV ==== 
     psi = 
    |psi|^2 = 0.002
==== e(  67) =    44.41438 eV ==== 
     psi = 
    |psi|^2 = 0.001
==== e(  68) =    45.57407 eV ==== 
     psi = 
    |psi|^2 = 0.000
==== e(  69) =    47.77200 eV ==== 
     psi = 
    |psi|^2 = 0.000

 k =   0.0000000000  0.0000000000  0.2609427609
==== e(   1) =   -48.18209 eV ==== 
     psi = 0.492*[#   1]+0.492*[#  11]+0.003*[#   5]+0.003*[#  15]+0.001*[#  21]+
          +0.001*[#  25]+0.001*[#  29]+0.001*[#  33]+0.001*[#  22]+0.001*[#  26]+
          +0.001*[#  30]+0.001*[#  34]+
    |psi|^2 = 1.000
==== e(   2) =   -48.16977 eV ==== 
     psi = 0.482*[#   1]+0.482*[#  11]+0.003*[#  23]+0.003*[#  24]+0.003*[#  27]+
          +0.003*[#  28]+0.003*[#  31]+0.003*[#  32]+0.003*[#  35]+0.003*[#  36]+
          +0.002*[#   5]+0.002*[#  15]+
    |psi|^2 = 1.000
==== e(   3) =   -24.47021 eV ==== 
     psi = 0.244*[#   3]+0.244*[#   4]+0.244*[#  13]+0.244*[#  14]+0.005*[#  21]+
          +0.005*[#  25]+0.005*[#  29]+0.005*[#  33]+
    |psi|^2 = 1.000
==== e(   4) =   -24.47021 eV ==== 
     psi = 0.244*[#   3]+0.244*[#   4]+0.244*[#  13]+0.244*[#  14]+0.005*[#  21]+
          +0.005*[#  25]+0.005*[#  29]+0.005*[#  33]+
    |psi|^2 = 1.000
==== e(   5) =   -24.40987 eV ==== 
     psi = 0.488*[#   2]+0.488*[#  12]+0.003*[#  22]+0.003*[#  26]+0.003*[#  30]+
          +0.003*[#  34]+0.001*[#  21]+0.001*[#  25]+0.001*[#  29]+0.001*[#  33]+
    |psi|^2 = 1.000
==== e(   6) =   -24.38515 eV ==== 
     psi = 0.490*[#   2]+0.490*[#  12]+0.002*[#   5]+0.002*[#  15]+0.001*[#  22]+
          +0.001*[#  26]+0.001*[#  30]+0.001*[#  34]+0.001*[#  21]+0.001*[#  25]+
          +0.001*[#  29]+0.001*[#  33]+
    |psi|^2 = 1.000
==== e(   7) =   -24.33745 eV ==== 
     psi = 0.246*[#   3]+0.246*[#   4]+0.246*[#  13]+0.246*[#  14]+0.002*[#  23]+
          +0.002*[#  24]+0.002*[#  27]+0.002*[#  28]+0.002*[#  31]+0.002*[#  32]+
          +0.002*[#  35]+0.002*[#  36]+
    |psi|^2 = 1.000
==== e(   8) =   -24.33745 eV ==== 
     psi = 0.246*[#   3]+0.246*[#   4]+0.246*[#  13]+0.246*[#  14]+0.002*[#  23]+
          +0.002*[#  24]+0.002*[#  27]+0.002*[#  28]+0.002*[#  31]+0.002*[#  32]+
          +0.002*[#  35]+0.002*[#  36]+
    |psi|^2 = 1.000
==== e(   9) =    -9.07284 eV ==== 
     psi = 0.171*[#  21]+0.171*[#  25]+0.171*[#  29]+0.171*[#  33]+0.144*[#   5]+
          +0.144*[#  15]+0.006*[#   1]+0.006*[#  11]+0.004*[#   2]+0.004*[#  12]+
    |psi|^2 = 0.999
==== e(  10) =    -8.08765 eV ==== 
     psi = 0.218*[#  21]+0.218*[#  25]+0.218*[#  29]+0.218*[#  33]+0.026*[#  10]+
          +0.026*[#  20]+0.020*[#   6]+0.020*[#  16]+0.012*[#   5]+0.012*[#  15]+
          +0.004*[#   2]+0.004*[#  12]+
    |psi|^2 = 0.999
==== e(  11) =    -7.63043 eV ==== 
     psi = 0.238*[#  21]+0.238*[#  25]+0.238*[#  29]+0.238*[#  33]+0.007*[#   7]+
          +0.007*[#   8]+0.007*[#  17]+0.007*[#  18]+0.005*[#   3]+0.005*[#   4]+
          +0.005*[#  13]+0.005*[#  14]+
    |psi|^2 = 0.997
==== e(  12) =    -7.63043 eV ==== 
     psi = 0.238*[#  21]+0.238*[#  25]+0.238*[#  29]+0.238*[#  33]+0.007*[#   7]+
          +0.007*[#   8]+0.007*[#  17]+0.007*[#  18]+0.005*[#   3]+0.005*[#   4]+
          +0.005*[#  13]+0.005*[#  14]+
    |psi|^2 = 0.997
==== e(  13) =     3.44271 eV ==== 
     psi = 0.090*[#  23]+0.090*[#  24]+0.090*[#  27]+0.090*[#  28]+0.090*[#  31]+
          +0.090*[#  32]+0.090*[#  35]+0.090*[#  36]+0.051*[#  10]+0.051*[#  20]+
          +0.047*[#   5]+0.047*[#  15]+0.028*[#   6]+0.028*[#  16]+0.007*[#   1]+
          +0.007*[#  11]+0.002*[#   2]+0.002*[#  12]+0.002*[#  21]+0.002*[#  25]+
          +0.002*[#  29]+0.002*[#  33]+
    |psi|^2 = 0.998
==== e(  14) =     3.77894 eV ==== 
     psi = 0.136*[#   6]+0.136*[#  16]+0.079*[#  23]+0.079*[#  24]+0.079*[#  27]+
          +0.079*[#  28]+0.079*[#  31]+0.079*[#  32]+0.079*[#  35]+0.079*[#  36]+
          +0.040*[#  10]+0.040*[#  20]+0.001*[#   2]+0.001*[#  12]+0.001*[#  22]+
          +0.001*[#  26]+0.001*[#  30]+0.001*[#  34]+
    |psi|^2 = 0.998
==== e(  15) =     4.34589 eV ==== 
     psi = 0.116*[#   9]+0.116*[#  19]+0.096*[#  23]+0.096*[#  24]+0.096*[#  27]+
          +0.096*[#  28]+0.096*[#  31]+0.096*[#  32]+0.096*[#  35]+0.096*[#  36]+
    |psi|^2 = 0.996
==== e(  16) =     4.69061 eV ==== 
     psi = 0.126*[#  22]+0.126*[#  26]+0.126*[#  30]+0.126*[#  34]+0.069*[#   7]+
          +0.069*[#   8]+0.069*[#  17]+0.069*[#  18]+0.026*[#  23]+0.026*[#  24]+
          +0.026*[#  27]+0.026*[#  28]+0.026*[#  31]+0.026*[#  32]+0.026*[#  35]+
          +0.026*[#  36]+
    |psi|^2 = 0.995
==== e(  17) =     4.69061 eV ==== 
     psi = 0.126*[#  22]+0.126*[#  26]+0.126*[#  30]+0.126*[#  34]+0.069*[#   7]+
          +0.069*[#   8]+0.069*[#  17]+0.069*[#  18]+0.026*[#  23]+0.026*[#  24]+
          +0.026*[#  27]+0.026*[#  28]+0.026*[#  31]+0.026*[#  32]+0.026*[#  35]+
          +0.026*[#  36]+
    |psi|^2 = 0.995
==== e(  18) =     6.06975 eV ==== 
     psi = 0.223*[#  22]+0.223*[#  26]+0.223*[#  30]+0.223*[#  34]+0.025*[#  10]+
          +0.025*[#  20]+0.013*[#   5]+0.013*[#  15]+0.005*[#   2]+0.005*[#  12]+
          +0.002*[#   1]+0.002*[#  11]+0.001*[#   6]+0.001*[#  16]+0.001*[#  21]+
          +0.001*[#  25]+0.001*[#  29]+0.001*[#  33]+
    |psi|^2 = 0.993
==== e(  19) =     6.63169 eV ==== 
     psi = 0.093*[#  23]+0.093*[#  24]+0.093*[#  27]+0.093*[#  28]+0.093*[#  31]+
          +0.093*[#  32]+0.093*[#  35]+0.093*[#  36]+0.046*[#  22]+0.046*[#  26]+
          +0.046*[#  30]+0.046*[#  34]+0.012*[#   7]+0.012*[#   8]+0.012*[#  17]+
          +0.012*[#  18]+0.003*[#   3]+0.003*[#   4]+0.003*[#  13]+0.003*[#  14]+
    |psi|^2 = 0.990
==== e(  20) =     6.63169 eV ==== 
     psi = 0.093*[#  23]+0.093*[#  24]+0.093*[#  27]+0.093*[#  28]+0.093*[#  31]+
          +0.093*[#  32]+0.093*[#  35]+0.093*[#  36]+0.046*[#  22]+0.046*[#  26]+
          +0.046*[#  30]+0.046*[#  34]+0.012*[#   7]+0.012*[#   8]+0.012*[#  17]+
          +0.012*[#  18]+0.003*[#   3]+0.003*[#   4]+0.003*[#  13]+0.003*[#  14]+
    |psi|^2 = 0.990
==== e(  21) =     7.02868 eV ==== 
     psi = 0.209*[#  22]+0.209*[#  26]+0.209*[#  30]+0.209*[#  34]+0.037*[#  10]+
          +0.037*[#  20]+0.014*[#   5]+0.014*[#  15]+0.008*[#   6]+0.008*[#  16]+
          +0.006*[#  21]+0.006*[#  25]+0.006*[#  29]+0.006*[#  33]+0.003*[#   2]+
          +0.003*[#  12]+0.002*[#   1]+0.002*[#  11]+
    |psi|^2 = 0.995
==== e(  22) =     7.79006 eV ==== 
     psi = 0.106*[#  23]+0.106*[#  24]+0.106*[#  27]+0.106*[#  28]+0.106*[#  31]+
          +0.106*[#  32]+0.106*[#  35]+0.106*[#  36]+0.026*[#   7]+0.026*[#   8]+
          +0.026*[#  17]+0.026*[#  18]+0.009*[#  22]+0.009*[#  26]+0.009*[#  30]+
          +0.009*[#  34]+
    |psi|^2 = 0.995
==== e(  23) =     7.79006 eV ==== 
     psi = 0.106*[#  23]+0.106*[#  24]+0.106*[#  27]+0.106*[#  28]+0.106*[#  31]+
          +0.106*[#  32]+0.106*[#  35]+0.106*[#  36]+0.026*[#   7]+0.026*[#   8]+
          +0.026*[#  17]+0.026*[#  18]+0.009*[#  22]+0.009*[#  26]+0.009*[#  30]+
          +0.009*[#  34]+
    |psi|^2 = 0.995
==== e(  24) =     8.50450 eV ==== 
     psi = 0.122*[#  23]+0.122*[#  24]+0.122*[#  27]+0.122*[#  28]+0.122*[#  31]+
          +0.122*[#  32]+0.122*[#  35]+0.122*[#  36]+0.010*[#   9]+0.010*[#  19]+
    |psi|^2 = 0.996
==== e(  25) =    11.00184 eV ==== 
     psi = 0.487*[#   9]+0.487*[#  19]+0.002*[#  23]+0.002*[#  24]+0.002*[#  27]+
          +0.002*[#  28]+0.002*[#  31]+0.002*[#  32]+0.002*[#  35]+0.002*[#  36]+
    |psi|^2 = 0.994
==== e(  26) =    11.18105 eV ==== 
     psi = 0.304*[#  10]+0.304*[#  20]+0.145*[#   6]+0.145*[#  16]+0.020*[#  22]+
          +0.020*[#  26]+0.020*[#  30]+0.020*[#  34]+0.001*[#  23]+0.001*[#  24]+
          +0.001*[#  27]+0.001*[#  28]+0.001*[#  31]+0.001*[#  32]+0.001*[#  35]+
          +0.001*[#  36]+
    |psi|^2 = 0.992
==== e(  27) =    11.22309 eV ==== 
     psi = 0.425*[#   6]+0.425*[#  16]+0.015*[#   5]+0.015*[#  15]+0.009*[#  10]+
          +0.009*[#  20]+0.008*[#  23]+0.008*[#  24]+0.008*[#  27]+0.008*[#  28]+
          +0.008*[#  31]+0.008*[#  32]+0.008*[#  35]+0.008*[#  36]+0.004*[#  21]+
          +0.003*[#  22]+0.004*[#  25]+0.003*[#  26]+0.004*[#  29]+0.003*[#  30]+
          +0.004*[#  33]+0.003*[#  34]+
    |psi|^2 = 0.990
==== e(  28) =    11.54438 eV ==== 
     psi = 0.215*[#   7]+0.215*[#   8]+0.215*[#  17]+0.215*[#  18]+0.016*[#  23]+
          +0.016*[#  24]+0.016*[#  27]+0.016*[#  28]+0.016*[#  31]+0.016*[#  32]+
          +0.016*[#  35]+0.016*[#  36]+
    |psi|^2 = 0.993
==== e(  29) =    11.54438 eV ==== 
     psi = 0.215*[#   7]+0.215*[#   8]+0.215*[#  17]+0.215*[#  18]+0.016*[#  23]+
          +0.016*[#  24]+0.016*[#  27]+0.016*[#  28]+0.016*[#  31]+0.016*[#  32]+
          +0.016*[#  35]+0.016*[#  36]+
    |psi|^2 = 0.993
==== e(  30) =    12.92768 eV ==== 
     psi = 0.383*[#   9]+0.383*[#  19]+0.029*[#  23]+0.029*[#  24]+0.029*[#  27]+
          +0.029*[#  28]+0.029*[#  31]+0.029*[#  32]+0.029*[#  35]+0.029*[#  36]+
    |psi|^2 = 0.997
==== e(  31) =    13.24220 eV ==== 
     psi = 0.386*[#  10]+0.386*[#  20]+0.019*[#  21]+0.019*[#  25]+0.019*[#  29]+
          +0.019*[#  33]+0.018*[#   6]+0.018*[#  16]+0.014*[#  22]+0.014*[#  26]+
          +0.014*[#  30]+0.014*[#  34]+0.006*[#  23]+0.006*[#  24]+0.006*[#  27]+
          +0.006*[#  28]+0.006*[#  31]+0.006*[#  32]+0.006*[#  35]+0.006*[#  36]+
    |psi|^2 = 0.995
==== e(  32) =    15.03664 eV ==== 
     psi = 0.167*[#   7]+0.167*[#   8]+0.167*[#  17]+0.167*[#  18]+0.064*[#  22]+
          +0.064*[#  26]+0.064*[#  30]+0.064*[#  34]+0.005*[#  21]+0.005*[#  25]+
          +0.005*[#  29]+0.005*[#  33]+0.004*[#  23]+0.004*[#  24]+0.004*[#  27]+
          +0.004*[#  28]+0.004*[#  31]+0.004*[#  32]+0.004*[#  35]+0.004*[#  36]+
    |psi|^2 = 0.976
==== e(  33) =    15.03664 eV ==== 
     psi = 0.167*[#   7]+0.167*[#   8]+0.167*[#  17]+0.167*[#  18]+0.064*[#  22]+
          +0.064*[#  26]+0.064*[#  30]+0.064*[#  34]+0.005*[#  21]+0.005*[#  25]+
          +0.005*[#  29]+0.005*[#  33]+0.004*[#  23]+0.004*[#  24]+0.004*[#  27]+
          +0.004*[#  28]+0.004*[#  31]+0.004*[#  32]+0.004*[#  35]+0.004*[#  36]+
    |psi|^2 = 0.976
==== e(  34) =    15.47982 eV ==== 
     psi = 0.183*[#   6]+0.183*[#  16]+0.107*[#  10]+0.107*[#  20]+0.039*[#  23]+
          +0.039*[#  24]+0.039*[#  27]+0.039*[#  28]+0.039*[#  31]+0.039*[#  32]+
          +0.039*[#  35]+0.039*[#  36]+0.034*[#   5]+0.034*[#  15]+0.007*[#  21]+
          +0.007*[#  25]+0.007*[#  29]+0.007*[#  33]+
    |psi|^2 = 0.990
==== e(  35) =    17.33684 eV ==== 
     psi = 0.277*[#   5]+0.277*[#  15]+0.055*[#  21]+0.055*[#  25]+0.055*[#  29]+
          +0.055*[#  33]+0.027*[#   6]+0.027*[#  16]+0.013*[#  22]+0.013*[#  26]+
          +0.013*[#  30]+0.013*[#  34]+0.007*[#  10]+0.007*[#  20]+0.003*[#  23]+
          +0.003*[#  24]+0.003*[#  27]+0.003*[#  28]+0.003*[#  31]+0.003*[#  32]+
          +0.003*[#  35]+0.003*[#  36]+
    |psi|^2 = 0.916
==== e(  36) =    21.34385 eV ==== 
     psi = 0.003*[#   7]+0.003*[#   8]+0.003*[#  17]+0.003*[#  18]+0.002*[#  22]+
          +0.002*[#  26]+0.002*[#  30]+0.002*[#  34]+
    |psi|^2 = 0.025
==== e(  37) =    21.34385 eV ==== 
     psi = 0.003*[#   7]+0.003*[#   8]+0.003*[#  17]+0.003*[#  18]+0.002*[#  22]+
          +0.002*[#  26]+0.002*[#  30]+0.002*[#  34]+
    |psi|^2 = 0.025
==== e(  38) =    22.90764 eV ==== 
     psi = 
    |psi|^2 = 0.004
==== e(  39) =    23.87767 eV ==== 
     psi = 0.013*[#   5]+0.013*[#  15]+0.003*[#   6]+0.003*[#  16]+0.001*[#  10]+
          +0.001*[#  20]+0.001*[#  22]+0.001*[#  26]+0.001*[#  30]+0.001*[#  34]+
    |psi|^2 = 0.044
==== e(  40) =    25.68181 eV ==== 
     psi = 0.018*[#   5]+0.018*[#  15]+0.005*[#  21]+0.005*[#  25]+0.005*[#  29]+
          +0.005*[#  33]+0.003*[#  10]+0.003*[#  20]+0.001*[#  22]+0.001*[#  26]+
          +0.001*[#  30]+0.001*[#  34]+
    |psi|^2 = 0.072
==== e(  41) =    26.51955 eV ==== 
     psi = 0.387*[#   5]+0.387*[#  15]+0.015*[#  23]+0.015*[#  24]+0.015*[#  27]+
          +0.015*[#  28]+0.015*[#  31]+0.015*[#  32]+0.015*[#  35]+0.015*[#  36]+
          +0.008*[#   1]+0.008*[#  11]+0.004*[#  21]+0.004*[#  25]+0.004*[#  29]+
          +0.004*[#  33]+0.003*[#  22]+0.003*[#  26]+0.003*[#  30]+0.003*[#  34]+
          +0.001*[#   6]+0.001*[#  16]+
    |psi|^2 = 0.936
==== e(  42) =    26.77903 eV ==== 
     psi = 0.001*[#   9]+0.001*[#  19]+
    |psi|^2 = 0.005
==== e(  43) =    27.21903 eV ==== 
     psi = 
    |psi|^2 = 0.008
==== e(  44) =    27.21903 eV ==== 
     psi = 
    |psi|^2 = 0.008
==== e(  45) =    28.67209 eV ==== 
     psi = 0.004*[#   5]+0.004*[#  15]+
    |psi|^2 = 0.016
==== e(  46) =    31.62427 eV ==== 
     psi = 
    |psi|^2 = 0.006
==== e(  47) =    31.98457 eV ==== 
     psi = 
    |psi|^2 = 0.005
==== e(  48) =    31.98457 eV ==== 
     psi = 
    |psi|^2 = 0.005
==== e(  49) =    32.84064 eV ==== 
     psi = 
    |psi|^2 = 0.003
==== e(  50) =    32.84064 eV ==== 
     psi = 
    |psi|^2 = 0.003
==== e(  51) =    34.26312 eV ==== 
     psi = 
    |psi|^2 = 0.003
==== e(  52) =    34.32020 eV ==== 
     psi = 0.001*[#   9]+0.001*[#  19]+
    |psi|^2 = 0.003
==== e(  53) =    35.26644 eV ==== 
     psi = 0.002*[#  10]+0.002*[#  20]+
    |psi|^2 = 0.006
==== e(  54) =    36.59639 eV ==== 
     psi = 
    |psi|^2 = 0.000
==== e(  55) =    36.79528 eV ==== 
     psi = 
    |psi|^2 = 0.001
==== e(  56) =    36.79528 eV ==== 
     psi = 
    |psi|^2 = 0.001
==== e(  57) =    38.70682 eV ==== 
     psi = 
    |psi|^2 = 0.002
==== e(  58) =    38.70682 eV ==== 
     psi = 
    |psi|^2 = 0.002
==== e(  59) =    39.37418 eV ==== 
     psi = 0.009*[#   5]+0.009*[#  15]+
    |psi|^2 = 0.024
==== e(  60) =    40.57051 eV ==== 
     psi = 
    |psi|^2 = 0.001
==== e(  61) =    41.74534 eV ==== 
     psi = 
    |psi|^2 = 0.004
==== e(  62) =    43.13516 eV ==== 
     psi = 
    |psi|^2 = 0.003
==== e(  63) =    43.23253 eV ==== 
     psi = 
    |psi|^2 = 0.001
==== e(  64) =    43.23253 eV ==== 
     psi = 
    |psi|^2 = 0.001
==== e(  65) =    43.78522 eV ==== 
     psi = 
    |psi|^2 = 0.001
==== e(  66) =    45.34233 eV ==== 
     psi = 
    |psi|^2 = 0.001
==== e(  67) =    45.34233 eV ==== 
     psi = 
    |psi|^2 = 0.001
==== e(  68) =    46.95104 eV ==== 
     psi = 
    |psi|^2 = 0.002
==== e(  69) =    46.96783 eV ==== 
     psi = 
    |psi|^2 = 0.001

 k =   0.0000000000  0.0000000000  0.5218855219
==== e(   1) =   -48.15961 eV ==== 
     psi = 0.491*[#   1]+0.491*[#  11]+0.003*[#  22]+0.003*[#  26]+0.003*[#  30]+
          +0.003*[#  34]+
    |psi|^2 = 1.000
==== e(   2) =   -48.15250 eV ==== 
     psi = 0.482*[#   1]+0.482*[#  11]+0.004*[#   5]+0.004*[#  15]+0.003*[#  22]+
          +0.003*[#  26]+0.003*[#  30]+0.003*[#  34]+0.002*[#  23]+0.002*[#  24]+
          +0.002*[#  27]+0.002*[#  28]+0.002*[#  31]+0.002*[#  32]+0.002*[#  35]+
          +0.002*[#  36]+
    |psi|^2 = 1.000
==== e(   3) =   -24.62820 eV ==== 
     psi = 0.481*[#   2]+0.481*[#  12]+0.004*[#  21]+0.004*[#  25]+0.004*[#  29]+
          +0.004*[#  33]+0.002*[#  23]+0.002*[#  24]+0.002*[#  27]+0.002*[#  28]+
          +0.002*[#  31]+0.002*[#  32]+0.002*[#  35]+0.002*[#  36]+0.002*[#  22]+
          +0.002*[#  26]+0.002*[#  30]+0.002*[#  34]+
    |psi|^2 = 1.000
==== e(   4) =   -24.61526 eV ==== 
     psi = 0.481*[#   2]+0.481*[#  12]+0.004*[#   5]+0.004*[#  15]+0.004*[#  21]+
          +0.004*[#  25]+0.004*[#  29]+0.004*[#  33]+0.002*[#  23]+0.002*[#  24]+
          +0.002*[#  27]+0.002*[#  28]+0.002*[#  31]+0.002*[#  32]+0.002*[#  35]+
          +0.002*[#  36]+
    |psi|^2 = 1.000
==== e(   5) =   -24.40612 eV ==== 
     psi = 0.245*[#   3]+0.245*[#   4]+0.245*[#  13]+0.245*[#  14]+0.002*[#  22]+
          +0.002*[#  26]+0.002*[#  30]+0.002*[#  34]+0.002*[#  21]+0.002*[#  25]+
          +0.002*[#  29]+0.002*[#  33]+
    |psi|^2 = 1.000
==== e(   6) =   -24.40612 eV ==== 
     psi = 0.245*[#   3]+0.245*[#   4]+0.245*[#  13]+0.245*[#  14]+0.002*[#  22]+
          +0.002*[#  26]+0.002*[#  30]+0.002*[#  34]+0.002*[#  21]+0.002*[#  25]+
          +0.002*[#  29]+0.002*[#  33]+
    |psi|^2 = 1.000
==== e(   7) =   -24.33306 eV ==== 
     psi = 0.247*[#   3]+0.247*[#   4]+0.247*[#  13]+0.247*[#  14]+0.001*[#  23]+
          +0.001*[#  24]+0.001*[#  27]+0.001*[#  28]+0.001*[#  31]+0.001*[#  32]+
          +0.001*[#  35]+0.001*[#  36]+
    |psi|^2 = 1.000
==== e(   8) =   -24.33306 eV ==== 
     psi = 0.247*[#   3]+0.247*[#   4]+0.247*[#  13]+0.247*[#  14]+0.001*[#  23]+
          +0.001*[#  24]+0.001*[#  27]+0.001*[#  28]+0.001*[#  31]+0.001*[#  32]+
          +0.001*[#  35]+0.001*[#  36]+
    |psi|^2 = 1.000
==== e(   9) =    -8.42489 eV ==== 
     psi = 0.195*[#  21]+0.195*[#  25]+0.195*[#  29]+0.195*[#  33]+0.092*[#   5]+
          +0.092*[#  15]+0.011*[#   2]+0.011*[#  12]+0.002*[#   1]+0.002*[#  11]+
          +0.001*[#  22]+0.001*[#  26]+0.001*[#  30]+0.001*[#  34]+0.001*[#  10]+
          +0.001*[#  20]+
    |psi|^2 = 0.999
==== e(  10) =    -7.90270 eV ==== 
     psi = 0.228*[#  21]+0.228*[#  25]+0.228*[#  29]+0.228*[#  33]+0.019*[#   7]+
          +0.019*[#   8]+0.019*[#  17]+0.019*[#  18]+0.003*[#   3]+0.003*[#   4]+
          +0.003*[#  13]+0.003*[#  14]+
    |psi|^2 = 0.999
==== e(  11) =    -7.90270 eV ==== 
     psi = 0.228*[#  21]+0.228*[#  25]+0.228*[#  29]+0.228*[#  33]+0.019*[#   7]+
          +0.019*[#   8]+0.019*[#  17]+0.019*[#  18]+0.003*[#   3]+0.003*[#   4]+
          +0.003*[#  13]+0.003*[#  14]+
    |psi|^2 = 0.999
==== e(  12) =    -7.81492 eV ==== 
     psi = 0.229*[#  21]+0.229*[#  25]+0.229*[#  29]+0.229*[#  33]+0.017*[#  10]+
          +0.017*[#  20]+0.012*[#   6]+0.012*[#  16]+0.010*[#   2]+0.010*[#  12]+
    |psi|^2 = 0.998
==== e(  13) =     4.29235 eV ==== 
     psi = 0.090*[#  23]+0.090*[#  24]+0.090*[#  27]+0.090*[#  28]+0.090*[#  31]+
          +0.090*[#  32]+0.090*[#  35]+0.090*[#  36]+0.076*[#  10]+0.076*[#  20]+
          +0.016*[#  22]+0.016*[#  26]+0.016*[#  30]+0.016*[#  34]+0.016*[#   5]+
          +0.016*[#  15]+0.008*[#   2]+0.008*[#  12]+0.004*[#   6]+0.004*[#  16]+
          +0.002*[#   1]+0.002*[#  11]+
    |psi|^2 = 0.994
==== e(  14) =     4.37027 eV ==== 
     psi = 0.077*[#  23]+0.077*[#  24]+0.077*[#  27]+0.077*[#  28]+0.077*[#  31]+
          +0.077*[#  32]+0.077*[#  35]+0.077*[#  36]+0.076*[#  10]+0.076*[#  20]+
          +0.069*[#   6]+0.069*[#  16]+0.021*[#  22]+0.021*[#  26]+0.021*[#  30]+
          +0.021*[#  34]+0.004*[#   2]+0.004*[#  12]+
    |psi|^2 = 0.997
==== e(  15) =     4.78502 eV ==== 
     psi = 0.106*[#  22]+0.106*[#  26]+0.106*[#  30]+0.106*[#  34]+0.057*[#   7]+
          +0.057*[#   8]+0.057*[#  17]+0.057*[#  18]+0.041*[#  23]+0.041*[#  24]+
          +0.041*[#  27]+0.041*[#  28]+0.041*[#  31]+0.041*[#  32]+0.041*[#  35]+
          +0.041*[#  36]+0.002*[#   3]+0.002*[#   4]+0.002*[#  13]+0.002*[#  14]+
          +0.002*[#  21]+0.002*[#  25]+0.002*[#  29]+0.002*[#  33]+
    |psi|^2 = 0.992
==== e(  16) =     4.78502 eV ==== 
     psi = 0.106*[#  22]+0.106*[#  26]+0.106*[#  30]+0.106*[#  34]+0.057*[#   7]+
          +0.057*[#   8]+0.057*[#  17]+0.057*[#  18]+0.041*[#  23]+0.041*[#  24]+
          +0.041*[#  27]+0.041*[#  28]+0.041*[#  31]+0.041*[#  32]+0.041*[#  35]+
          +0.041*[#  36]+0.002*[#   3]+0.002*[#   4]+0.002*[#  13]+0.002*[#  14]+
          +0.002*[#  21]+0.002*[#  25]+0.002*[#  29]+0.002*[#  33]+
    |psi|^2 = 0.992
==== e(  17) =     4.97917 eV ==== 
     psi = 0.184*[#  22]+0.184*[#  26]+0.184*[#  30]+0.184*[#  34]+0.054*[#   5]+
          +0.054*[#  15]+0.026*[#  10]+0.026*[#  20]+0.011*[#  23]+0.011*[#  24]+
          +0.011*[#  27]+0.011*[#  28]+0.011*[#  31]+0.011*[#  32]+0.011*[#  35]+
          +0.011*[#  36]+0.005*[#   1]+0.005*[#  11]+
    |psi|^2 = 0.998
==== e(  18) =     5.23820 eV ==== 
     psi = 0.102*[#   9]+0.102*[#  19]+0.099*[#  23]+0.099*[#  24]+0.099*[#  27]+
          +0.099*[#  28]+0.099*[#  31]+0.099*[#  32]+0.099*[#  35]+0.099*[#  36]+
    |psi|^2 = 0.993
==== e(  19) =     5.62725 eV ==== 
     psi = 0.169*[#  22]+0.169*[#  26]+0.169*[#  30]+0.169*[#  34]+0.035*[#   5]+
          +0.035*[#  15]+0.027*[#  10]+0.027*[#  20]+0.020*[#   6]+0.020*[#  16]+
          +0.014*[#  23]+0.014*[#  24]+0.014*[#  27]+0.014*[#  28]+0.014*[#  31]+
          +0.014*[#  32]+0.014*[#  35]+0.014*[#  36]+0.007*[#  21]+0.007*[#  25]+
          +0.007*[#  29]+0.007*[#  33]+0.004*[#   1]+0.004*[#  11]+0.002*[#   2]+
          +0.002*[#  12]+
    |psi|^2 = 0.996
==== e(  20) =     6.74663 eV ==== 
     psi = 0.094*[#  23]+0.094*[#  24]+0.094*[#  27]+0.094*[#  28]+0.094*[#  31]+
          +0.094*[#  32]+0.094*[#  35]+0.094*[#  36]+0.055*[#   7]+0.055*[#   8]+
          +0.055*[#  17]+0.055*[#  18]+0.002*[#  21]+0.002*[#  22]+0.002*[#  25]+
          +0.002*[#  26]+0.002*[#  29]+0.002*[#  30]+0.002*[#  33]+0.002*[#  34]+
    |psi|^2 = 0.994
==== e(  21) =     6.74663 eV ==== 
     psi = 0.094*[#  23]+0.094*[#  24]+0.094*[#  27]+0.094*[#  28]+0.094*[#  31]+
          +0.094*[#  32]+0.094*[#  35]+0.094*[#  36]+0.055*[#   7]+0.055*[#   8]+
          +0.055*[#  17]+0.055*[#  18]+0.002*[#  21]+0.002*[#  22]+0.002*[#  25]+
          +0.002*[#  26]+0.002*[#  29]+0.002*[#  30]+0.002*[#  33]+0.002*[#  34]+
    |psi|^2 = 0.994
==== e(  22) =     7.13982 eV ==== 
     psi = 0.108*[#  22]+0.108*[#  26]+0.108*[#  30]+0.108*[#  34]+0.067*[#  23]+
          +0.067*[#  24]+0.067*[#  27]+0.067*[#  28]+0.067*[#  31]+0.067*[#  32]+
          +0.067*[#  35]+0.067*[#  36]+0.003*[#   7]+0.003*[#   8]+0.003*[#  17]+
          +0.003*[#  18]+0.003*[#   3]+0.003*[#   4]+0.003*[#  13]+0.003*[#  14]+
    |psi|^2 = 0.992
==== e(  23) =     7.13982 eV ==== 
     psi = 0.108*[#  22]+0.108*[#  26]+0.108*[#  30]+0.108*[#  34]+0.067*[#  23]+
          +0.067*[#  24]+0.067*[#  27]+0.067*[#  28]+0.067*[#  31]+0.067*[#  32]+
          +0.067*[#  35]+0.067*[#  36]+0.003*[#   7]+0.003*[#   8]+0.003*[#  17]+
          +0.003*[#  18]+0.003*[#   3]+0.003*[#   4]+0.003*[#  13]+0.003*[#  14]+
    |psi|^2 = 0.992
==== e(  24) =     7.84135 eV ==== 
     psi = 0.119*[#  23]+0.119*[#  24]+0.119*[#  27]+0.119*[#  28]+0.119*[#  31]+
          +0.119*[#  32]+0.119*[#  35]+0.119*[#  36]+0.018*[#   9]+0.018*[#  19]+
    |psi|^2 = 0.991
==== e(  25) =    10.95404 eV ==== 
     psi = 0.479*[#   9]+0.479*[#  19]+0.005*[#  23]+0.005*[#  24]+0.005*[#  27]+
          +0.005*[#  28]+0.005*[#  31]+0.005*[#  32]+0.005*[#  35]+0.005*[#  36]+
    |psi|^2 = 0.994
==== e(  26) =    11.44021 eV ==== 
     psi = 0.469*[#   6]+0.469*[#  16]+0.005*[#  10]+0.005*[#  20]+0.004*[#  21]+
          +0.004*[#  25]+0.004*[#  29]+0.004*[#  33]+0.003*[#   5]+0.003*[#  15]+
          +0.003*[#  22]+0.003*[#  26]+0.003*[#  30]+0.003*[#  34]+0.001*[#  23]+
          +0.001*[#  24]+0.001*[#  27]+0.001*[#  28]+0.001*[#  31]+0.001*[#  32]+
          +0.001*[#  35]+0.001*[#  36]+
    |psi|^2 = 0.993
==== e(  27) =    11.83564 eV ==== 
     psi = 0.244*[#   6]+0.244*[#  16]+0.206*[#  10]+0.206*[#  20]+0.018*[#  22]+
          +0.018*[#  26]+0.018*[#  30]+0.018*[#  34]+0.002*[#  23]+0.002*[#  24]+
          +0.002*[#  27]+0.002*[#  28]+0.002*[#  31]+0.002*[#  32]+0.002*[#  35]+
          +0.002*[#  36]+0.001*[#  21]+0.001*[#  25]+0.001*[#  29]+0.001*[#  33]+
    |psi|^2 = 0.995
==== e(  28) =    12.12657 eV ==== 
     psi = 0.185*[#   7]+0.185*[#   8]+0.185*[#  17]+0.185*[#  18]+0.028*[#  23]+
          +0.028*[#  24]+0.028*[#  27]+0.028*[#  28]+0.028*[#  31]+0.028*[#  32]+
          +0.028*[#  35]+0.028*[#  36]+0.007*[#  22]+0.007*[#  26]+0.007*[#  30]+
          +0.007*[#  34]+
    |psi|^2 = 0.994
==== e(  29) =    12.12657 eV ==== 
     psi = 0.185*[#   7]+0.185*[#   8]+0.185*[#  17]+0.185*[#  18]+0.028*[#  23]+
          +0.028*[#  24]+0.028*[#  27]+0.028*[#  28]+0.028*[#  31]+0.028*[#  32]+
          +0.028*[#  35]+0.028*[#  36]+0.007*[#  22]+0.007*[#  26]+0.007*[#  30]+
          +0.007*[#  34]+
    |psi|^2 = 0.994
==== e(  30) =    12.30740 eV ==== 
     psi = 0.396*[#   9]+0.396*[#  19]+0.026*[#  23]+0.026*[#  24]+0.026*[#  27]+
          +0.026*[#  28]+0.026*[#  31]+0.026*[#  32]+0.026*[#  35]+0.026*[#  36]+
    |psi|^2 = 0.997
==== e(  31) =    13.78596 eV ==== 
     psi = 0.374*[#  10]+0.374*[#  20]+0.026*[#  22]+0.026*[#  26]+0.026*[#  30]+
          +0.026*[#  34]+0.012*[#  21]+0.012*[#  25]+0.012*[#  29]+0.012*[#  33]+
          +0.010*[#  23]+0.010*[#  24]+0.010*[#  27]+0.010*[#  28]+0.010*[#  31]+
          +0.010*[#  32]+0.010*[#  35]+0.010*[#  36]+0.007*[#   6]+0.007*[#  16]+
    |psi|^2 = 0.992
==== e(  32) =    14.49904 eV ==== 
     psi = 0.179*[#  10]+0.179*[#  20]+0.151*[#   6]+0.151*[#  16]+0.028*[#  23]+
          +0.028*[#  24]+0.028*[#  27]+0.028*[#  28]+0.028*[#  31]+0.028*[#  32]+
          +0.028*[#  35]+0.028*[#  36]+0.019*[#   5]+0.019*[#  15]+0.007*[#  21]+
          +0.007*[#  25]+0.007*[#  29]+0.007*[#  33]+0.005*[#  22]+0.005*[#  26]+
          +0.005*[#  30]+0.005*[#  34]+
    |psi|^2 = 0.975
==== e(  33) =    14.73432 eV ==== 
     psi = 0.177*[#   7]+0.177*[#   8]+0.177*[#  17]+0.177*[#  18]+0.021*[#  22]+
          +0.021*[#  26]+0.021*[#  30]+0.021*[#  34]+0.017*[#  23]+0.017*[#  24]+
          +0.017*[#  27]+0.017*[#  28]+0.017*[#  31]+0.017*[#  32]+0.017*[#  35]+
          +0.017*[#  36]+0.014*[#  21]+0.014*[#  25]+0.014*[#  29]+0.014*[#  33]+
    |psi|^2 = 0.983
==== e(  34) =    14.73432 eV ==== 
     psi = 0.177*[#   7]+0.177*[#   8]+0.177*[#  17]+0.177*[#  18]+0.021*[#  22]+
          +0.021*[#  26]+0.021*[#  30]+0.021*[#  34]+0.017*[#  23]+0.017*[#  24]+
          +0.017*[#  27]+0.017*[#  28]+0.017*[#  31]+0.017*[#  32]+0.017*[#  35]+
          +0.017*[#  36]+0.014*[#  21]+0.014*[#  25]+0.014*[#  29]+0.014*[#  33]+
    |psi|^2 = 0.983
==== e(  35) =    19.10118 eV ==== 
     psi = 0.287*[#   5]+0.287*[#  15]+0.026*[#  21]+0.026*[#  25]+0.026*[#  29]+
          +0.026*[#  33]+0.025*[#  22]+0.025*[#  26]+0.025*[#  30]+0.025*[#  34]+
          +0.014*[#   6]+0.014*[#  16]+0.006*[#  10]+0.006*[#  20]+0.002*[#   1]+
          +0.002*[#  11]+
    |psi|^2 = 0.827
==== e(  36) =    22.61373 eV ==== 
     psi = 0.042*[#   5]+0.042*[#  15]+0.004*[#  22]+0.004*[#  26]+0.004*[#  30]+
          +0.004*[#  34]+0.003*[#   6]+0.003*[#  16]+0.001*[#   1]+0.001*[#  11]+
    |psi|^2 = 0.112
==== e(  37) =    23.08391 eV ==== 
     psi = 0.002*[#   7]+0.002*[#   8]+0.002*[#  17]+0.002*[#  18]+0.002*[#  22]+
          +0.002*[#  26]+0.002*[#  30]+0.002*[#  34]+
    |psi|^2 = 0.019
==== e(  38) =    23.08391 eV ==== 
     psi = 0.002*[#   7]+0.002*[#   8]+0.002*[#  17]+0.002*[#  18]+0.002*[#  22]+
          +0.002*[#  26]+0.002*[#  30]+0.002*[#  34]+
    |psi|^2 = 0.019
==== e(  39) =    23.24559 eV ==== 
     psi = 
    |psi|^2 = 0.005
==== e(  40) =    25.08558 eV ==== 
     psi = 0.003*[#   9]+0.003*[#  19]+
    |psi|^2 = 0.010
==== e(  41) =    26.29860 eV ==== 
     psi = 
    |psi|^2 = 0.006
==== e(  42) =    26.29860 eV ==== 
     psi = 
    |psi|^2 = 0.006
==== e(  43) =    26.42764 eV ==== 
     psi = 0.358*[#   5]+0.358*[#  15]+0.010*[#  22]+0.010*[#  26]+0.010*[#  30]+
          +0.010*[#  34]+0.009*[#   1]+0.009*[#  11]+0.008*[#  23]+0.008*[#  24]+
          +0.008*[#  27]+0.008*[#  28]+0.008*[#  31]+0.008*[#  32]+0.008*[#  35]+
          +0.008*[#  36]+
    |psi|^2 = 0.842
==== e(  44) =    26.59988 eV ==== 
     psi = 0.010*[#   5]+0.010*[#  15]+0.004*[#  10]+0.004*[#  20]+0.002*[#  22]+
          +0.002*[#  26]+0.002*[#  30]+0.002*[#  34]+0.001*[#  21]+0.001*[#  25]+
          +0.001*[#  29]+0.001*[#  33]+
    |psi|^2 = 0.051
==== e(  45) =    27.05675 eV ==== 
     psi = 0.048*[#   5]+0.048*[#  15]+0.005*[#  21]+0.005*[#  25]+0.005*[#  29]+
          +0.005*[#  33]+0.004*[#  22]+0.004*[#  26]+0.004*[#  30]+0.004*[#  34]+
    |psi|^2 = 0.139
==== e(  46) =    30.28217 eV ==== 
     psi = 0.006*[#   5]+0.006*[#  15]+0.001*[#   6]+0.001*[#  16]+
    |psi|^2 = 0.017
==== e(  47) =    31.02659 eV ==== 
     psi = 
    |psi|^2 = 0.005
==== e(  48) =    31.02659 eV ==== 
     psi = 
    |psi|^2 = 0.005
==== e(  49) =    33.35484 eV ==== 
     psi = 
    |psi|^2 = 0.004
==== e(  50) =    33.35484 eV ==== 
     psi = 
    |psi|^2 = 0.004
==== e(  51) =    33.76893 eV ==== 
     psi = 
    |psi|^2 = 0.005
==== e(  52) =    35.05188 eV ==== 
     psi = 
    |psi|^2 = 0.003
==== e(  53) =    35.39046 eV ==== 
     psi = 0.001*[#   5]+0.001*[#  15]+
    |psi|^2 = 0.007
==== e(  54) =    37.28626 eV ==== 
     psi = 
    |psi|^2 = 0.001
==== e(  55) =    37.28626 eV ==== 
     psi = 
    |psi|^2 = 0.001
==== e(  56) =    38.36414 eV ==== 
     psi = 
    |psi|^2 = 0.002
==== e(  57) =    38.59083 eV ==== 
     psi = 0.015*[#   5]+0.015*[#  15]+0.001*[#  22]+0.001*[#  26]+0.001*[#  30]+
          +0.001*[#  34]+
    |psi|^2 = 0.040
==== e(  58) =    39.47638 eV ==== 
     psi = 
    |psi|^2 = 0.000
==== e(  59) =    39.47638 eV ==== 
     psi = 
    |psi|^2 = 0.000
==== e(  60) =    41.88403 eV ==== 
     psi = 
    |psi|^2 = 0.000
==== e(  61) =    42.64147 eV ==== 
     psi = 
    |psi|^2 = 0.004
==== e(  62) =    43.31295 eV ==== 
     psi = 
    |psi|^2 = 0.001
==== e(  63) =    43.44822 eV ==== 
     psi = 
    |psi|^2 = 0.001
==== e(  64) =    43.44822 eV ==== 
     psi = 
    |psi|^2 = 0.001
==== e(  65) =    45.38101 eV ==== 
     psi = 
    |psi|^2 = 0.000
==== e(  66) =    45.63861 eV ==== 
     psi = 
    |psi|^2 = 0.002
==== e(  67) =    46.32700 eV ==== 
     psi = 
    |psi|^2 = 0.002
==== e(  68) =    46.46811 eV ==== 
     psi = 
    |psi|^2 = 0.001
==== e(  69) =    46.46811 eV ==== 
     psi = 
    |psi|^2 = 0.001

 k =   0.0000000000  0.0000000000 -0.7828282828
==== e(   1) =   -48.14608 eV ==== 
     psi = 0.485*[#   1]+0.485*[#  11]+0.005*[#  22]+0.005*[#  26]+0.005*[#  30]+
          +0.005*[#  34]+0.003*[#   5]+0.003*[#  15]+
    |psi|^2 = 1.000
==== e(   2) =   -48.14608 eV ==== 
     psi = 0.485*[#   1]+0.485*[#  11]+0.005*[#  22]+0.005*[#  26]+0.005*[#  30]+
          +0.005*[#  34]+0.003*[#   5]+0.003*[#  15]+
    |psi|^2 = 1.000
==== e(   3) =   -24.73067 eV ==== 
     psi = 0.478*[#   2]+0.478*[#  12]+0.006*[#  21]+0.006*[#  25]+0.006*[#  29]+
          +0.006*[#  33]+0.002*[#  23]+0.002*[#  24]+0.002*[#  27]+0.002*[#  28]+
          +0.002*[#  31]+0.002*[#  32]+0.002*[#  35]+0.002*[#  36]+
    |psi|^2 = 1.000
==== e(   4) =   -24.73067 eV ==== 
     psi = 0.478*[#   2]+0.478*[#  12]+0.006*[#  21]+0.006*[#  25]+0.006*[#  29]+
          +0.006*[#  33]+0.002*[#  23]+0.002*[#  24]+0.002*[#  27]+0.002*[#  28]+
          +0.002*[#  31]+0.002*[#  32]+0.002*[#  35]+0.002*[#  36]+
    |psi|^2 = 1.000
==== e(   5) =   -24.35721 eV ==== 
     psi = 0.246*[#   3]+0.246*[#   4]+0.246*[#  13]+0.246*[#  14]+0.004*[#  22]+
          +0.004*[#  26]+0.004*[#  30]+0.004*[#  34]+
    |psi|^2 = 1.000
==== e(   6) =   -24.35721 eV ==== 
     psi = 0.246*[#   3]+0.246*[#   4]+0.246*[#  13]+0.246*[#  14]+0.004*[#  22]+
          +0.004*[#  26]+0.004*[#  30]+0.004*[#  34]+
    |psi|^2 = 1.000
==== e(   7) =   -24.34740 eV ==== 
     psi = 0.247*[#   3]+0.247*[#   4]+0.247*[#  13]+0.247*[#  14]+0.001*[#  21]+
          +0.001*[#  25]+0.001*[#  29]+0.001*[#  33]+0.001*[#  23]+0.001*[#  24]+
          +0.001*[#  27]+0.001*[#  28]+0.001*[#  31]+0.001*[#  32]+0.001*[#  35]+
          +0.001*[#  36]+
    |psi|^2 = 1.000
==== e(   8) =   -24.34740 eV ==== 
     psi = 0.247*[#   3]+0.247*[#   4]+0.247*[#  13]+0.247*[#  14]+0.001*[#  21]+
          +0.001*[#  25]+0.001*[#  29]+0.001*[#  33]+0.001*[#  23]+0.001*[#  24]+
          +0.001*[#  27]+0.001*[#  28]+0.001*[#  31]+0.001*[#  32]+0.001*[#  35]+
          +0.001*[#  36]+
    |psi|^2 = 1.000
==== e(   9) =    -8.03703 eV ==== 
     psi = 0.224*[#  21]+0.224*[#  25]+0.224*[#  29]+0.224*[#  33]+0.024*[#   7]+
          +0.024*[#   8]+0.024*[#  17]+0.024*[#  18]+0.001*[#   3]+0.001*[#   4]+
          +0.001*[#  13]+0.001*[#  14]+
    |psi|^2 = 0.999
==== e(  10) =    -8.03703 eV ==== 
     psi = 0.224*[#  21]+0.224*[#  25]+0.224*[#  29]+0.224*[#  33]+0.024*[#   7]+
          +0.024*[#   8]+0.024*[#  17]+0.024*[#  18]+0.001*[#   3]+0.001*[#   4]+
          +0.001*[#  13]+0.001*[#  14]+
    |psi|^2 = 0.999
==== e(  11) =    -7.88443 eV ==== 
     psi = 0.223*[#  21]+0.223*[#  25]+0.223*[#  29]+0.223*[#  33]+0.026*[#   5]+
          +0.026*[#  15]+0.013*[#   2]+0.013*[#  12]+0.007*[#  10]+0.007*[#  20]+
          +0.004*[#   6]+0.004*[#  16]+0.001*[#  22]+0.001*[#  26]+0.001*[#  30]+
          +0.001*[#  34]+
    |psi|^2 = 0.998
==== e(  12) =    -7.88443 eV ==== 
     psi = 0.223*[#  21]+0.223*[#  25]+0.223*[#  29]+0.223*[#  33]+0.026*[#   5]+
          +0.026*[#  15]+0.013*[#   2]+0.013*[#  12]+0.007*[#  10]+0.007*[#  20]+
          +0.004*[#   6]+0.004*[#  16]+0.001*[#  22]+0.001*[#  26]+0.001*[#  30]+
          +0.001*[#  34]+
    |psi|^2 = 0.998
==== e(  13) =     4.38459 eV ==== 
     psi = 0.126*[#  22]+0.126*[#  26]+0.126*[#  30]+0.126*[#  34]+0.111*[#  10]+
          +0.111*[#  20]+0.028*[#  23]+0.028*[#  24]+0.028*[#  27]+0.028*[#  28]+
          +0.028*[#  31]+0.028*[#  32]+0.028*[#  35]+0.028*[#  36]+0.016*[#   5]+
          +0.016*[#  15]+0.003*[#   2]+0.003*[#  12]+0.003*[#   6]+0.003*[#  16]+
          +0.001*[#   1]+0.001*[#  11]+
    |psi|^2 = 0.997
==== e(  14) =     4.38459 eV ==== 
     psi = 0.126*[#  22]+0.126*[#  26]+0.126*[#  30]+0.126*[#  34]+0.111*[#  10]+
          +0.111*[#  20]+0.028*[#  23]+0.028*[#  24]+0.028*[#  27]+0.028*[#  28]+
          +0.028*[#  31]+0.028*[#  32]+0.028*[#  35]+0.028*[#  36]+0.016*[#   5]+
          +0.016*[#  15]+0.003*[#   2]+0.003*[#  12]+0.003*[#   6]+0.003*[#  16]+
          +0.001*[#   1]+0.001*[#  11]+
    |psi|^2 = 0.997
==== e(  15) =     5.12475 eV ==== 
     psi = 0.116*[#  22]+0.116*[#  26]+0.116*[#  30]+0.116*[#  34]+0.059*[#   7]+
          +0.059*[#   8]+0.059*[#  17]+0.059*[#  18]+0.036*[#  23]+0.036*[#  24]+
          +0.036*[#  27]+0.036*[#  28]+0.036*[#  31]+0.036*[#  32]+0.036*[#  35]+
          +0.036*[#  36]+0.002*[#   3]+0.002*[#   4]+0.002*[#  13]+0.002*[#  14]+
    |psi|^2 = 0.991
==== e(  16) =     5.12475 eV ==== 
     psi = 0.116*[#  22]+0.116*[#  26]+0.116*[#  30]+0.116*[#  34]+0.059*[#   7]+
          +0.059*[#   8]+0.059*[#  17]+0.059*[#  18]+0.036*[#  23]+0.036*[#  24]+
          +0.036*[#  27]+0.036*[#  28]+0.036*[#  31]+0.036*[#  32]+0.036*[#  35]+
          +0.036*[#  36]+0.002*[#   3]+0.002*[#   4]+0.002*[#  13]+0.002*[#  14]+
    |psi|^2 = 0.991
==== e(  17) =     5.14075 eV ==== 
     psi = 0.076*[#  23]+0.076*[#  24]+0.076*[#  27]+0.076*[#  28]+0.076*[#  31]+
          +0.076*[#  32]+0.076*[#  35]+0.076*[#  36]+0.061*[#  22]+0.061*[#  26]+
          +0.061*[#  30]+0.061*[#  34]+0.043*[#   5]+0.043*[#  15]+0.014*[#   6]+
          +0.014*[#  16]+0.005*[#   1]+0.005*[#  11]+0.004*[#   2]+0.004*[#  12]+
          +0.002*[#  21]+0.002*[#  25]+0.002*[#  29]+0.002*[#  33]+0.001*[#  10]+
          +0.001*[#  20]+
    |psi|^2 = 0.994
==== e(  18) =     5.14075 eV ==== 
     psi = 0.076*[#  23]+0.076*[#  24]+0.076*[#  27]+0.076*[#  28]+0.076*[#  31]+
          +0.076*[#  32]+0.076*[#  35]+0.076*[#  36]+0.061*[#  22]+0.061*[#  26]+
          +0.061*[#  30]+0.061*[#  34]+0.043*[#   5]+0.043*[#  15]+0.014*[#   6]+
          +0.014*[#  16]+0.005*[#   1]+0.005*[#  11]+0.004*[#   2]+0.004*[#  12]+
          +0.002*[#  21]+0.002*[#  25]+0.002*[#  29]+0.002*[#  33]+0.001*[#  10]+
          +0.001*[#  20]+
    |psi|^2 = 0.994
==== e(  19) =     6.06274 eV ==== 
     psi = 0.098*[#  23]+0.098*[#  24]+0.098*[#  27]+0.098*[#  28]+0.098*[#  31]+
          +0.098*[#  32]+0.098*[#  35]+0.098*[#  36]+0.045*[#   7]+0.045*[#   8]+
          +0.045*[#  17]+0.045*[#  18]+0.005*[#  21]+0.005*[#  25]+0.005*[#  29]+
          +0.005*[#  33]+0.002*[#   3]+0.002*[#   4]+0.002*[#  13]+0.002*[#  14]+
    |psi|^2 = 0.994
==== e(  20) =     6.06274 eV ==== 
     psi = 0.098*[#  23]+0.098*[#  24]+0.098*[#  27]+0.098*[#  28]+0.098*[#  31]+
          +0.098*[#  32]+0.098*[#  35]+0.098*[#  36]+0.045*[#   7]+0.045*[#   8]+
          +0.045*[#  17]+0.045*[#  18]+0.005*[#  21]+0.005*[#  25]+0.005*[#  29]+
          +0.005*[#  33]+0.002*[#   3]+0.002*[#   4]+0.002*[#  13]+0.002*[#  14]+
    |psi|^2 = 0.994
==== e(  21) =     6.53779 eV ==== 
     psi = 0.106*[#  23]+0.106*[#  24]+0.106*[#  27]+0.106*[#  28]+0.106*[#  31]+
          +0.106*[#  32]+0.106*[#  35]+0.106*[#  36]+0.072*[#   9]+0.072*[#  19]+
    |psi|^2 = 0.990
==== e(  22) =     6.53779 eV ==== 
     psi = 0.106*[#  23]+0.106*[#  24]+0.106*[#  27]+0.106*[#  28]+0.106*[#  31]+
          +0.106*[#  32]+0.106*[#  35]+0.106*[#  36]+0.072*[#   9]+0.072*[#  19]+
    |psi|^2 = 0.990
==== e(  23) =     7.24998 eV ==== 
     psi = 0.115*[#  22]+0.115*[#  26]+0.115*[#  30]+0.115*[#  34]+0.059*[#  23]+
          +0.059*[#  24]+0.059*[#  27]+0.059*[#  28]+0.059*[#  31]+0.059*[#  32]+
          +0.059*[#  35]+0.059*[#  36]+0.012*[#   7]+0.012*[#   8]+0.012*[#  17]+
          +0.012*[#  18]+0.002*[#   3]+0.002*[#   4]+0.002*[#  13]+0.002*[#  14]+
    |psi|^2 = 0.993
==== e(  24) =     7.24998 eV ==== 
     psi = 0.115*[#  22]+0.115*[#  26]+0.115*[#  30]+0.115*[#  34]+0.059*[#  23]+
          +0.059*[#  24]+0.059*[#  27]+0.059*[#  28]+0.059*[#  31]+0.059*[#  32]+
          +0.059*[#  35]+0.059*[#  36]+0.012*[#   7]+0.012*[#   8]+0.012*[#  17]+
          +0.012*[#  18]+0.002*[#   3]+0.002*[#   4]+0.002*[#  13]+0.002*[#  14]+
    |psi|^2 = 0.993
==== e(  25) =    11.52297 eV ==== 
     psi = 0.425*[#   9]+0.425*[#  19]+0.018*[#  23]+0.018*[#  24]+0.018*[#  27]+
          +0.018*[#  28]+0.018*[#  31]+0.018*[#  32]+0.018*[#  35]+0.018*[#  36]+
    |psi|^2 = 0.996
==== e(  26) =    11.52297 eV ==== 
     psi = 0.425*[#   9]+0.425*[#  19]+0.018*[#  23]+0.018*[#  24]+0.018*[#  27]+
          +0.018*[#  28]+0.018*[#  31]+0.018*[#  32]+0.018*[#  35]+0.018*[#  36]+
    |psi|^2 = 0.996
==== e(  27) =    11.80602 eV ==== 
     psi = 0.436*[#   6]+0.436*[#  16]+0.044*[#  10]+0.044*[#  20]+0.006*[#  22]+
          +0.006*[#  26]+0.006*[#  30]+0.006*[#  34]+
    |psi|^2 = 0.994
==== e(  28) =    11.80602 eV ==== 
     psi = 0.436*[#   6]+0.436*[#  16]+0.044*[#  10]+0.044*[#  20]+0.006*[#  22]+
          +0.006*[#  26]+0.006*[#  30]+0.006*[#  34]+
    |psi|^2 = 0.994
==== e(  29) =    12.38427 eV ==== 
     psi = 0.178*[#   7]+0.178*[#   8]+0.178*[#  17]+0.178*[#  18]+0.030*[#  23]+
          +0.030*[#  24]+0.030*[#  27]+0.030*[#  28]+0.030*[#  31]+0.030*[#  32]+
          +0.030*[#  35]+0.030*[#  36]+0.012*[#  22]+0.012*[#  26]+0.012*[#  30]+
          +0.012*[#  34]+
    |psi|^2 = 0.996
==== e(  30) =    12.38427 eV ==== 
     psi = 0.178*[#   7]+0.178*[#   8]+0.178*[#  17]+0.178*[#  18]+0.030*[#  23]+
          +0.030*[#  24]+0.030*[#  27]+0.030*[#  28]+0.030*[#  31]+0.030*[#  32]+
          +0.030*[#  35]+0.030*[#  36]+0.012*[#  22]+0.012*[#  26]+0.012*[#  30]+
          +0.012*[#  34]+
    |psi|^2 = 0.996
==== e(  31) =    13.93817 eV ==== 
     psi = 0.331*[#  10]+0.331*[#  20]+0.033*[#   6]+0.033*[#  16]+0.020*[#  22]+
          +0.020*[#  26]+0.020*[#  30]+0.020*[#  34]+0.014*[#  23]+0.014*[#  24]+
          +0.014*[#  27]+0.014*[#  28]+0.014*[#  31]+0.014*[#  32]+0.014*[#  35]+
          +0.014*[#  36]+0.009*[#  21]+0.009*[#  25]+0.009*[#  29]+0.009*[#  33]+
          +0.006*[#   5]+0.006*[#  15]+
    |psi|^2 = 0.976
==== e(  32) =    13.93817 eV ==== 
     psi = 0.331*[#  10]+0.331*[#  20]+0.033*[#   6]+0.033*[#  16]+0.020*[#  22]+
          +0.020*[#  26]+0.020*[#  30]+0.020*[#  34]+0.014*[#  23]+0.014*[#  24]+
          +0.014*[#  27]+0.014*[#  28]+0.014*[#  31]+0.014*[#  32]+0.014*[#  35]+
          +0.014*[#  36]+0.009*[#  21]+0.009*[#  25]+0.009*[#  29]+0.009*[#  33]+
          +0.006*[#   5]+0.006*[#  15]+
    |psi|^2 = 0.976
==== e(  33) =    14.75823 eV ==== 
     psi = 0.179*[#   7]+0.179*[#   8]+0.179*[#  17]+0.179*[#  18]+0.025*[#  23]+
          +0.025*[#  24]+0.025*[#  27]+0.025*[#  28]+0.025*[#  31]+0.025*[#  32]+
          +0.025*[#  35]+0.025*[#  36]+0.019*[#  21]+0.019*[#  25]+0.019*[#  29]+
          +0.019*[#  33]+
    |psi|^2 = 0.993
==== e(  34) =    14.75823 eV ==== 
     psi = 0.179*[#   7]+0.179*[#   8]+0.179*[#  17]+0.179*[#  18]+0.025*[#  23]+
          +0.025*[#  24]+0.025*[#  27]+0.025*[#  28]+0.025*[#  31]+0.025*[#  32]+
          +0.025*[#  35]+0.025*[#  36]+0.019*[#  21]+0.019*[#  25]+0.019*[#  29]+
          +0.019*[#  33]+
    |psi|^2 = 0.993
==== e(  35) =    20.96861 eV ==== 
     psi = 0.207*[#   5]+0.207*[#  15]+0.017*[#  22]+0.017*[#  26]+0.017*[#  30]+
          +0.017*[#  34]+0.008*[#   6]+0.008*[#  16]+0.005*[#   1]+0.005*[#  11]+
          +0.004*[#  21]+0.004*[#  25]+0.004*[#  29]+0.004*[#  33]+0.003*[#  10]+
          +0.003*[#  20]+
    |psi|^2 = 0.529
==== e(  36) =    20.96861 eV ==== 
     psi = 0.207*[#   5]+0.207*[#  15]+0.017*[#  22]+0.017*[#  26]+0.017*[#  30]+
          +0.017*[#  34]+0.008*[#   6]+0.008*[#  16]+0.005*[#   1]+0.005*[#  11]+
          +0.004*[#  21]+0.004*[#  25]+0.004*[#  29]+0.004*[#  33]+0.003*[#  10]+
          +0.003*[#  20]+
    |psi|^2 = 0.529
==== e(  37) =    23.94133 eV ==== 
     psi = 0.002*[#   9]+0.002*[#  19]+
    |psi|^2 = 0.009
==== e(  38) =    23.94133 eV ==== 
     psi = 0.002*[#   9]+0.002*[#  19]+
    |psi|^2 = 0.009
==== e(  39) =    23.99193 eV ==== 
     psi = 0.001*[#  22]+0.001*[#  26]+0.001*[#  30]+0.001*[#  34]+
    |psi|^2 = 0.010
==== e(  40) =    23.99193 eV ==== 
     psi = 0.001*[#  22]+0.001*[#  26]+0.001*[#  30]+0.001*[#  34]+
    |psi|^2 = 0.010
==== e(  41) =    25.65681 eV ==== 
     psi = 
    |psi|^2 = 0.006
==== e(  42) =    25.65681 eV ==== 
     psi = 
    |psi|^2 = 0.006
==== e(  43) =    26.30723 eV ==== 
     psi = 0.148*[#   5]+0.148*[#  15]+0.007*[#  22]+0.007*[#  26]+0.007*[#  30]+
          +0.007*[#  34]+0.003*[#  21]+0.003*[#  25]+0.003*[#  29]+0.003*[#  33]+
          +0.003*[#   1]+0.003*[#  11]+0.003*[#  23]+0.003*[#  24]+0.003*[#  27]+
          +0.003*[#  28]+0.003*[#  31]+0.003*[#  32]+0.003*[#  35]+0.003*[#  36]+
    |psi|^2 = 0.366
==== e(  44) =    26.30723 eV ==== 
     psi = 0.148*[#   5]+0.148*[#  15]+0.007*[#  22]+0.007*[#  26]+0.007*[#  30]+
          +0.007*[#  34]+0.003*[#  21]+0.003*[#  25]+0.003*[#  29]+0.003*[#  33]+
          +0.003*[#   1]+0.003*[#  11]+0.003*[#  23]+0.003*[#  24]+0.003*[#  27]+
          +0.003*[#  28]+0.003*[#  31]+0.003*[#  32]+0.003*[#  35]+0.003*[#  36]+
    |psi|^2 = 0.366
==== e(  45) =    28.05360 eV ==== 
     psi = 0.037*[#   5]+0.037*[#  15]+0.004*[#  22]+0.004*[#  26]+0.004*[#  30]+
          +0.004*[#  34]+0.002*[#  10]+0.002*[#  20]+0.001*[#  21]+0.001*[#  25]+
          +0.001*[#  29]+0.001*[#  33]+
    |psi|^2 = 0.102
==== e(  46) =    28.05360 eV ==== 
     psi = 0.037*[#   5]+0.037*[#  15]+0.004*[#  22]+0.004*[#  26]+0.004*[#  30]+
          +0.004*[#  34]+0.002*[#  10]+0.002*[#  20]+0.001*[#  21]+0.001*[#  25]+
          +0.001*[#  29]+0.001*[#  33]+
    |psi|^2 = 0.102
==== e(  47) =    31.01629 eV ==== 
     psi = 
    |psi|^2 = 0.005
==== e(  48) =    31.01629 eV ==== 
     psi = 
    |psi|^2 = 0.005
==== e(  49) =    32.83755 eV ==== 
     psi = 
    |psi|^2 = 0.003
==== e(  50) =    32.83755 eV ==== 
     psi = 
    |psi|^2 = 0.003
==== e(  51) =    35.71624 eV ==== 
     psi = 0.006*[#   5]+0.006*[#  15]+0.001*[#  22]+0.001*[#  26]+0.001*[#  30]+
          +0.001*[#  34]+
    |psi|^2 = 0.020
==== e(  52) =    35.71624 eV ==== 
     psi = 0.006*[#   5]+0.006*[#  15]+0.001*[#  22]+0.001*[#  26]+0.001*[#  30]+
          +0.001*[#  34]+
    |psi|^2 = 0.020
==== e(  53) =    36.37847 eV ==== 
     psi = 
    |psi|^2 = 0.002
==== e(  54) =    36.37847 eV ==== 
     psi = 
    |psi|^2 = 0.002
==== e(  55) =    37.91523 eV ==== 
     psi = 
    |psi|^2 = 0.002
==== e(  56) =    37.91523 eV ==== 
     psi = 
    |psi|^2 = 0.002
==== e(  57) =    38.81342 eV ==== 
     psi = 0.005*[#   5]+0.005*[#  15]+
    |psi|^2 = 0.013
==== e(  58) =    38.81342 eV ==== 
     psi = 0.005*[#   5]+0.005*[#  15]+
    |psi|^2 = 0.013
==== e(  59) =    40.97340 eV ==== 
     psi = 
    |psi|^2 = 0.001
==== e(  60) =    40.97340 eV ==== 
     psi = 
    |psi|^2 = 0.001
==== e(  61) =    43.63404 eV ==== 
     psi = 
    |psi|^2 = 0.001
==== e(  62) =    43.63404 eV ==== 
     psi = 
    |psi|^2 = 0.001
==== e(  63) =    43.77812 eV ==== 
     psi = 
    |psi|^2 = 0.000
==== e(  64) =    43.77812 eV ==== 
     psi = 
    |psi|^2 = 0.000
==== e(  65) =    44.82114 eV ==== 
     psi = 
    |psi|^2 = 0.001
==== e(  66) =    44.82114 eV ==== 
     psi = 
    |psi|^2 = 0.001
==== e(  67) =    46.35574 eV ==== 
     psi = 
    |psi|^2 = 0.001
==== e(  68) =    46.35574 eV ==== 
     psi = 
    |psi|^2 = 0.001
==== e(  69) =    46.58785 eV ==== 
     psi = 
    |psi|^2 = 0.001

 k =   0.0000000000  0.1666666667  0.0000000000
==== e(   1) =   -48.19197 eV ==== 
     psi = 0.491*[#   1]+0.491*[#  11]+0.005*[#   5]+0.005*[#  15]+0.001*[#  21]+
          +0.001*[#  25]+0.001*[#  29]+0.001*[#  33]+
    |psi|^2 = 1.000
==== e(   2) =   -48.17966 eV ==== 
     psi = 0.484*[#   1]+0.484*[#  11]+0.004*[#  23]+0.004*[#  24]+0.004*[#  27]+
          +0.004*[#  28]+0.004*[#  31]+0.004*[#  32]+0.004*[#  35]+0.004*[#  36]+
    |psi|^2 = 1.000
==== e(   3) =   -24.49245 eV ==== 
     psi = 0.244*[#   3]+0.244*[#   4]+0.244*[#  13]+0.244*[#  14]+0.005*[#  21]+
          +0.005*[#  25]+0.005*[#  29]+0.005*[#  33]+
    |psi|^2 = 1.000
==== e(   4) =   -24.49186 eV ==== 
     psi = 0.244*[#   3]+0.244*[#   4]+0.244*[#  13]+0.244*[#  14]+0.005*[#  21]+
          +0.005*[#  25]+0.005*[#  29]+0.005*[#  33]+
    |psi|^2 = 1.000
==== e(   5) =   -24.35050 eV ==== 
     psi = 0.246*[#   3]+0.246*[#   4]+0.246*[#  13]+0.246*[#  14]+0.002*[#  23]+
          +0.002*[#  24]+0.002*[#  27]+0.002*[#  28]+0.002*[#  31]+0.002*[#  32]+
          +0.002*[#  35]+0.002*[#  36]+
    |psi|^2 = 1.000
==== e(   6) =   -24.34989 eV ==== 
     psi = 0.246*[#   3]+0.246*[#   4]+0.246*[#  13]+0.246*[#  14]+0.002*[#  23]+
          +0.002*[#  24]+0.002*[#  27]+0.002*[#  28]+0.002*[#  31]+0.002*[#  32]+
          +0.002*[#  35]+0.002*[#  36]+
    |psi|^2 = 1.000
==== e(   7) =   -24.29493 eV ==== 
     psi = 0.493*[#   2]+0.493*[#  12]+0.004*[#  22]+0.004*[#  26]+0.004*[#  30]+
          +0.004*[#  34]+
    |psi|^2 = 1.000
==== e(   8) =   -24.26894 eV ==== 
     psi = 0.496*[#   2]+0.496*[#  12]+0.002*[#  22]+0.002*[#  26]+0.002*[#  30]+
          +0.002*[#  34]+
    |psi|^2 = 1.000
==== e(   9) =    -9.26904 eV ==== 
     psi = 0.166*[#  21]+0.166*[#  25]+0.166*[#  29]+0.166*[#  33]+0.156*[#   5]+
          +0.156*[#  15]+0.007*[#   1]+0.007*[#  11]+0.002*[#   6]+0.002*[#  16]+
    |psi|^2 = 0.999
==== e(  10) =    -8.27660 eV ==== 
     psi = 0.211*[#  21]+0.211*[#  25]+0.211*[#  29]+0.211*[#  33]+0.028*[#   5]+
          +0.028*[#  15]+0.025*[#  10]+0.025*[#  20]+0.021*[#   6]+0.021*[#  16]+
          +0.001*[#   1]+0.001*[#  11]+
    |psi|^2 = 0.999
==== e(  11) =    -7.56453 eV ==== 
     psi = 0.238*[#  21]+0.238*[#  25]+0.238*[#  29]+0.238*[#  33]+0.006*[#   5]+
          +0.006*[#  15]+0.005*[#   3]+0.005*[#   4]+0.005*[#  13]+0.005*[#  14]+
          +0.004*[#  10]+0.004*[#  20]+0.001*[#   6]+0.001*[#  16]+
    |psi|^2 = 0.997
==== e(  12) =    -7.52266 eV ==== 
     psi = 0.241*[#  21]+0.241*[#  25]+0.241*[#  29]+0.241*[#  33]+0.006*[#   3]+
          +0.006*[#   4]+0.006*[#  13]+0.006*[#  14]+0.003*[#  10]+0.003*[#  20]+
          +0.001*[#   6]+0.001*[#  16]+
    |psi|^2 = 0.997
==== e(  13) =     3.20787 eV ==== 
     psi = 0.088*[#  23]+0.088*[#  24]+0.088*[#  27]+0.088*[#  28]+0.088*[#  31]+
          +0.088*[#  32]+0.088*[#  35]+0.088*[#  36]+0.044*[#  10]+0.044*[#  20]+
          +0.043*[#   6]+0.043*[#  16]+0.040*[#   5]+0.040*[#  15]+0.008*[#   1]+
          +0.008*[#  11]+0.005*[#  21]+0.005*[#  25]+0.005*[#  29]+0.005*[#  33]+
    |psi|^2 = 0.997
==== e(  14) =     3.56282 eV ==== 
     psi = 0.151*[#   6]+0.151*[#  16]+0.079*[#  23]+0.079*[#  24]+0.079*[#  27]+
          +0.079*[#  28]+0.079*[#  31]+0.079*[#  32]+0.079*[#  35]+0.079*[#  36]+
          +0.025*[#  10]+0.025*[#  20]+0.001*[#   5]+0.001*[#  15]+0.001*[#  21]+
          +0.001*[#  25]+0.001*[#  29]+0.001*[#  33]+
    |psi|^2 = 0.998
==== e(  15) =     4.19835 eV ==== 
     psi = 0.114*[#   9]+0.114*[#  19]+0.095*[#  23]+0.095*[#  24]+0.095*[#  27]+
          +0.095*[#  28]+0.095*[#  31]+0.095*[#  32]+0.095*[#  35]+0.095*[#  36]+
    |psi|^2 = 0.997
==== e(  16) =     4.87062 eV ==== 
     psi = 0.163*[#  22]+0.163*[#  26]+0.163*[#  30]+0.163*[#  34]+0.087*[#   7]+
          +0.087*[#   8]+0.087*[#  17]+0.087*[#  18]+
    |psi|^2 = 0.999
==== e(  17) =     4.87565 eV ==== 
     psi = 0.163*[#  22]+0.163*[#  26]+0.163*[#  30]+0.163*[#  34]+0.087*[#   7]+
          +0.087*[#   8]+0.087*[#  17]+0.087*[#  18]+
    |psi|^2 = 0.999
==== e(  18) =     6.06903 eV ==== 
     psi = 0.116*[#  23]+0.116*[#  24]+0.116*[#  27]+0.116*[#  28]+0.116*[#  31]+
          +0.116*[#  32]+0.116*[#  35]+0.116*[#  36]+0.014*[#  10]+0.014*[#  20]+
          +0.006*[#   9]+0.006*[#  19]+0.003*[#   3]+0.003*[#   4]+0.003*[#  13]+
          +0.003*[#  14]+0.001*[#   6]+0.001*[#  16]+
    |psi|^2 = 0.988
==== e(  19) =     6.18702 eV ==== 
     psi = 0.116*[#  23]+0.116*[#  24]+0.116*[#  27]+0.116*[#  28]+0.116*[#  31]+
          +0.116*[#  32]+0.116*[#  35]+0.116*[#  36]+0.008*[#   6]+0.008*[#  16]+
          +0.007*[#  10]+0.007*[#  20]+0.005*[#   5]+0.005*[#  15]+0.003*[#   3]+
          +0.003*[#   4]+0.003*[#  13]+0.003*[#  14]+0.003*[#   9]+0.003*[#  19]+
    |psi|^2 = 0.989
==== e(  20) =     6.84826 eV ==== 
     psi = 0.240*[#  22]+0.240*[#  26]+0.240*[#  30]+0.240*[#  34]+0.007*[#   2]+
          +0.007*[#  12]+0.005*[#   7]+0.005*[#   8]+0.005*[#  17]+0.005*[#  18]+
    |psi|^2 = 0.993
==== e(  21) =     7.79568 eV ==== 
     psi = 0.113*[#  23]+0.113*[#  24]+0.113*[#  27]+0.113*[#  28]+0.113*[#  31]+
          +0.113*[#  32]+0.113*[#  35]+0.113*[#  36]+0.024*[#   9]+0.024*[#  19]+
          +0.009*[#  10]+0.009*[#  20]+0.005*[#   5]+0.005*[#  15]+0.003*[#  21]+
          +0.003*[#  25]+0.003*[#  29]+0.003*[#  33]+0.001*[#   6]+0.001*[#  16]+
    |psi|^2 = 0.995
==== e(  22) =     7.85772 eV ==== 
     psi = 0.239*[#  22]+0.239*[#  26]+0.239*[#  30]+0.239*[#  34]+0.008*[#   7]+
          +0.008*[#   8]+0.008*[#  17]+0.008*[#  18]+0.004*[#   2]+0.004*[#  12]+
    |psi|^2 = 0.995
==== e(  23) =     8.05694 eV ==== 
     psi = 0.118*[#  23]+0.118*[#  24]+0.118*[#  27]+0.118*[#  28]+0.118*[#  31]+
          +0.118*[#  32]+0.118*[#  35]+0.118*[#  36]+0.016*[#   6]+0.016*[#  16]+
          +0.006*[#  10]+0.006*[#  20]+0.001*[#  21]+0.001*[#  25]+0.001*[#  29]+
          +0.001*[#  33]+
    |psi|^2 = 0.994
==== e(  24) =     8.51909 eV ==== 
     psi = 0.118*[#  23]+0.118*[#  24]+0.118*[#  27]+0.118*[#  28]+0.118*[#  31]+
          +0.118*[#  32]+0.118*[#  35]+0.118*[#  36]+0.023*[#   9]+0.023*[#  19]+
    |psi|^2 = 0.996
==== e(  25) =    10.79377 eV ==== 
     psi = 0.338*[#  10]+0.338*[#  20]+0.130*[#   6]+0.130*[#  16]+0.006*[#  23]+
          +0.006*[#  24]+0.006*[#  27]+0.006*[#  28]+0.006*[#  31]+0.006*[#  32]+
          +0.006*[#  35]+0.006*[#  36]+0.003*[#   5]+0.003*[#  15]+
    |psi|^2 = 0.991
==== e(  26) =    11.22595 eV ==== 
     psi = 0.329*[#   6]+0.329*[#  16]+0.071*[#  10]+0.071*[#  20]+0.021*[#   5]+
          +0.021*[#  15]+0.018*[#  23]+0.018*[#  24]+0.018*[#  27]+0.018*[#  28]+
          +0.018*[#  31]+0.018*[#  32]+0.018*[#  35]+0.018*[#  36]+
    |psi|^2 = 0.986
==== e(  27) =    11.29439 eV ==== 
     psi = 0.244*[#   7]+0.244*[#   8]+0.244*[#  17]+0.244*[#  18]+0.004*[#  22]+
          +0.004*[#  26]+0.004*[#  30]+0.004*[#  34]+
    |psi|^2 = 0.995
==== e(  28) =    11.32665 eV ==== 
     psi = 0.241*[#   7]+0.241*[#   8]+0.241*[#  17]+0.241*[#  18]+0.008*[#  22]+
          +0.008*[#  26]+0.008*[#  30]+0.008*[#  34]+
    |psi|^2 = 0.995
==== e(  29) =    11.38768 eV ==== 
     psi = 0.444*[#   9]+0.444*[#  19]+0.013*[#  23]+0.013*[#  24]+0.013*[#  27]+
          +0.013*[#  28]+0.013*[#  31]+0.013*[#  32]+0.013*[#  35]+0.013*[#  36]+
    |psi|^2 = 0.995
==== e(  30) =    13.01422 eV ==== 
     psi = 0.257*[#   9]+0.257*[#  19]+0.112*[#  10]+0.112*[#  20]+0.024*[#   6]+
          +0.024*[#  16]+0.022*[#  23]+0.022*[#  24]+0.022*[#  27]+0.022*[#  28]+
          +0.022*[#  31]+0.022*[#  32]+0.022*[#  35]+0.022*[#  36]+0.008*[#  21]+
          +0.008*[#  25]+0.008*[#  29]+0.008*[#  33]+
    |psi|^2 = 0.992
==== e(  31) =    13.07687 eV ==== 
     psi = 0.227*[#  10]+0.227*[#  20]+0.124*[#   9]+0.124*[#  19]+0.050*[#   6]+
          +0.050*[#  16]+0.016*[#  23]+0.016*[#  24]+0.016*[#  27]+0.016*[#  28]+
          +0.016*[#  31]+0.016*[#  32]+0.016*[#  35]+0.016*[#  36]+0.016*[#  21]+
          +0.016*[#  25]+0.016*[#  29]+0.016*[#  33]+
    |psi|^2 = 0.995
==== e(  32) =    15.35170 eV ==== 
     psi = 0.162*[#   7]+0.162*[#   8]+0.162*[#  17]+0.162*[#  18]+0.087*[#  22]+
          +0.087*[#  26]+0.087*[#  30]+0.087*[#  34]+
    |psi|^2 = 0.992
==== e(  33) =    15.36611 eV ==== 
     psi = 0.161*[#   7]+0.161*[#   8]+0.161*[#  17]+0.161*[#  18]+0.087*[#  22]+
          +0.087*[#  26]+0.087*[#  30]+0.087*[#  34]+
    |psi|^2 = 0.993
==== e(  34) =    15.77838 eV ==== 
     psi = 0.190*[#   6]+0.190*[#  16]+0.104*[#  10]+0.104*[#  20]+0.043*[#  23]+
          +0.043*[#  24]+0.043*[#  27]+0.043*[#  28]+0.043*[#  31]+0.043*[#  32]+
          +0.043*[#  35]+0.043*[#  36]+0.023*[#   5]+0.023*[#  15]+0.004*[#  21]+
          +0.004*[#  25]+0.004*[#  29]+0.004*[#  33]+
    |psi|^2 = 0.996
==== e(  35) =    16.81124 eV ==== 
     psi = 0.282*[#   5]+0.282*[#  15]+0.066*[#  21]+0.066*[#  25]+0.066*[#  29]+
          +0.066*[#  33]+0.021*[#   6]+0.021*[#  16]+0.005*[#  23]+0.005*[#  24]+
          +0.005*[#  27]+0.005*[#  28]+0.005*[#  31]+0.005*[#  32]+0.005*[#  35]+
          +0.005*[#  36]+0.002*[#  10]+0.002*[#  20]+
    |psi|^2 = 0.917
==== e(  36) =    20.19493 eV ==== 
     psi = 0.063*[#   5]+0.063*[#  15]+0.003*[#  23]+0.003*[#  24]+0.003*[#  27]+
          +0.003*[#  28]+0.003*[#  31]+0.003*[#  32]+0.003*[#  35]+0.003*[#  36]+
          +0.003*[#  21]+0.003*[#  25]+0.003*[#  29]+0.003*[#  33]+0.001*[#   9]+
          +0.001*[#  19]+
    |psi|^2 = 0.165
==== e(  37) =    20.53518 eV ==== 
     psi = 0.004*[#   5]+0.004*[#  15]+0.001*[#  21]+0.001*[#  25]+0.001*[#  29]+
          +0.001*[#  33]+
    |psi|^2 = 0.018
==== e(  38) =    22.90737 eV ==== 
     psi = 0.004*[#   5]+0.004*[#  15]+
    |psi|^2 = 0.015
==== e(  39) =    24.05057 eV ==== 
     psi = 0.027*[#   5]+0.027*[#  15]+0.003*[#   6]+0.003*[#  16]+0.002*[#  10]+
          +0.002*[#  20]+0.002*[#  23]+0.002*[#  24]+0.002*[#  27]+0.002*[#  28]+
          +0.002*[#  31]+0.002*[#  32]+0.002*[#  35]+0.002*[#  36]+0.001*[#  21]+
          +0.001*[#  25]+0.001*[#  29]+0.001*[#  33]+
    |psi|^2 = 0.086
==== e(  40) =    25.06978 eV ==== 
     psi = 0.016*[#   5]+0.016*[#  15]+0.005*[#  21]+0.005*[#  25]+0.005*[#  29]+
          +0.005*[#  33]+0.001*[#  10]+0.001*[#  20]+
    |psi|^2 = 0.062
==== e(  41) =    26.52238 eV ==== 
     psi = 0.295*[#   5]+0.295*[#  15]+0.013*[#  23]+0.013*[#  24]+0.013*[#  27]+
          +0.013*[#  28]+0.013*[#  31]+0.013*[#  32]+0.013*[#  35]+0.013*[#  36]+
          +0.009*[#  21]+0.009*[#  25]+0.009*[#  29]+0.009*[#  33]+0.004*[#   1]+
          +0.004*[#  11]+
    |psi|^2 = 0.739
==== e(  42) =    27.52850 eV ==== 
     psi = 
    |psi|^2 = 0.012
==== e(  43) =    27.98618 eV ==== 
     psi = 
    |psi|^2 = 0.007
==== e(  44) =    28.40261 eV ==== 
     psi = 
    |psi|^2 = 0.000
==== e(  45) =    30.14176 eV ==== 
     psi = 
    |psi|^2 = 0.002
==== e(  46) =    31.05531 eV ==== 
     psi = 0.001*[#   5]+0.001*[#  15]+
    |psi|^2 = 0.007
==== e(  47) =    31.17868 eV ==== 
     psi = 0.001*[#  22]+0.001*[#  26]+0.001*[#  30]+0.001*[#  34]+
    |psi|^2 = 0.005
==== e(  48) =    31.74297 eV ==== 
     psi = 
    |psi|^2 = 0.002
==== e(  49) =    32.39526 eV ==== 
     psi = 
    |psi|^2 = 0.003
==== e(  50) =    33.93319 eV ==== 
     psi = 0.001*[#   7]+0.001*[#   8]+0.001*[#  17]+0.001*[#  18]+
    |psi|^2 = 0.007
==== e(  51) =    34.17344 eV ==== 
     psi = 
    |psi|^2 = 0.001
==== e(  52) =    34.33990 eV ==== 
     psi = 0.001*[#   9]+0.001*[#  19]+
    |psi|^2 = 0.004
==== e(  53) =    34.64773 eV ==== 
     psi = 0.001*[#   7]+0.001*[#   8]+0.001*[#  17]+0.001*[#  18]+
    |psi|^2 = 0.006
==== e(  54) =    35.15131 eV ==== 
     psi = 0.001*[#  10]+0.001*[#  20]+
    |psi|^2 = 0.004
==== e(  55) =    37.16157 eV ==== 
     psi = 0.002*[#   5]+0.002*[#  15]+0.001*[#   6]+0.001*[#  16]+
    |psi|^2 = 0.007
==== e(  56) =    37.25365 eV ==== 
     psi = 
    |psi|^2 = 0.001
==== e(  57) =    38.92641 eV ==== 
     psi = 
    |psi|^2 = 0.001
==== e(  58) =    39.90436 eV ==== 
     psi = 0.002*[#   5]+0.002*[#  15]+
    |psi|^2 = 0.007
==== e(  59) =    40.26409 eV ==== 
     psi = 0.001*[#   5]+0.001*[#  15]+
    |psi|^2 = 0.005
==== e(  60) =    40.64247 eV ==== 
     psi = 
    |psi|^2 = 0.001
==== e(  61) =    40.69480 eV ==== 
     psi = 
    |psi|^2 = 0.002
==== e(  62) =    41.66223 eV ==== 
     psi = 
    |psi|^2 = 0.002
==== e(  63) =    42.16976 eV ==== 
     psi = 
    |psi|^2 = 0.001
==== e(  64) =    43.09035 eV ==== 
     psi = 
    |psi|^2 = 0.000
==== e(  65) =    43.86330 eV ==== 
     psi = 
    |psi|^2 = 0.002
==== e(  66) =    44.46815 eV ==== 
     psi = 
    |psi|^2 = 0.002
==== e(  67) =    45.17225 eV ==== 
     psi = 
    |psi|^2 = 0.001
==== e(  68) =    46.06410 eV ==== 
     psi = 
    |psi|^2 = 0.001
==== e(  69) =    47.13617 eV ==== 
     psi = 
    |psi|^2 = 0.001

 k =   0.0000000000  0.1666666667  0.2609427609
==== e(   1) =   -48.18125 eV ==== 
     psi = 0.492*[#   1]+0.492*[#  11]+0.002*[#   5]+0.002*[#  15]+0.001*[#  21]+
          +0.001*[#  25]+0.001*[#  29]+0.001*[#  33]+0.001*[#  22]+0.001*[#  26]+
          +0.001*[#  30]+0.001*[#  34]+
    |psi|^2 = 1.000
==== e(   2) =   -48.17058 eV ==== 
     psi = 0.484*[#   1]+0.484*[#  11]+0.003*[#  23]+0.003*[#  24]+0.003*[#  27]+
          +0.003*[#  28]+0.003*[#  31]+0.003*[#  32]+0.003*[#  35]+0.003*[#  36]+
          +0.001*[#   5]+0.001*[#  15]+
    |psi|^2 = 1.000
==== e(   3) =   -24.46632 eV ==== 
     psi = 0.235*[#   3]+0.235*[#   4]+0.235*[#  13]+0.235*[#  14]+0.018*[#   2]+
          +0.018*[#  12]+0.004*[#  21]+0.004*[#  25]+0.004*[#  29]+0.004*[#  33]+
          +0.001*[#  22]+0.001*[#  26]+0.001*[#  30]+0.001*[#  34]+
    |psi|^2 = 1.000
==== e(   4) =   -24.46363 eV ==== 
     psi = 0.244*[#   3]+0.244*[#   4]+0.244*[#  13]+0.244*[#  14]+0.004*[#  21]+
          +0.004*[#  25]+0.004*[#  29]+0.004*[#  33]+
    |psi|^2 = 1.000
==== e(   5) =   -24.40747 eV ==== 
     psi = 0.459*[#   2]+0.459*[#  12]+0.015*[#   3]+0.015*[#   4]+0.015*[#  13]+
          +0.015*[#  14]+0.003*[#  22]+0.003*[#  26]+0.003*[#  30]+0.003*[#  34]+
          +0.002*[#  21]+0.002*[#  25]+0.002*[#  29]+0.002*[#  33]+
    |psi|^2 = 1.000
==== e(   6) =   -24.39160 eV ==== 
     psi = 0.443*[#   2]+0.443*[#  12]+0.024*[#   3]+0.024*[#   4]+0.024*[#  13]+
          +0.024*[#  14]+0.003*[#   5]+0.003*[#  15]+0.001*[#  21]+0.001*[#  22]+
          +0.001*[#  25]+0.001*[#  26]+0.001*[#  29]+0.001*[#  30]+0.001*[#  33]+
          +0.001*[#  34]+
    |psi|^2 = 1.000
==== e(   7) =   -24.34264 eV ==== 
     psi = 0.241*[#   3]+0.241*[#   4]+0.241*[#  13]+0.241*[#  14]+0.011*[#   2]+
          +0.011*[#  12]+0.002*[#  23]+0.002*[#  24]+0.002*[#  27]+0.002*[#  28]+
          +0.002*[#  31]+0.002*[#  32]+0.002*[#  35]+0.002*[#  36]+
    |psi|^2 = 1.000
==== e(   8) =   -24.33982 eV ==== 
     psi = 0.223*[#   3]+0.223*[#   4]+0.223*[#  13]+0.223*[#  14]+0.047*[#   2]+
          +0.047*[#  12]+0.002*[#  23]+0.002*[#  24]+0.002*[#  27]+0.002*[#  28]+
          +0.002*[#  31]+0.002*[#  32]+0.002*[#  35]+0.002*[#  36]+
    |psi|^2 = 1.000
==== e(   9) =    -8.99420 eV ==== 
     psi = 0.174*[#  21]+0.174*[#  25]+0.174*[#  29]+0.174*[#  33]+0.138*[#   5]+
          +0.138*[#  15]+0.005*[#   1]+0.005*[#  11]+0.004*[#   2]+0.004*[#  12]+
          +0.001*[#   6]+0.001*[#  16]+
    |psi|^2 = 0.999
==== e(  10) =    -8.09703 eV ==== 
     psi = 0.217*[#  21]+0.217*[#  25]+0.217*[#  29]+0.217*[#  33]+0.022*[#  10]+
          +0.022*[#  20]+0.018*[#   5]+0.018*[#  15]+0.018*[#   6]+0.018*[#  16]+
          +0.004*[#   2]+0.004*[#  12]+
    |psi|^2 = 0.999
==== e(  11) =    -7.70021 eV ==== 
     psi = 0.233*[#  21]+0.233*[#  25]+0.233*[#  29]+0.233*[#  33]+0.007*[#   7]+
          +0.007*[#   8]+0.007*[#  17]+0.007*[#  18]+0.006*[#   5]+0.006*[#  15]+
          +0.004*[#   3]+0.004*[#   4]+0.004*[#  13]+0.004*[#  14]+0.003*[#  10]+
          +0.003*[#  20]+0.001*[#   6]+0.001*[#  16]+
    |psi|^2 = 0.998
==== e(  12) =    -7.65422 eV ==== 
     psi = 0.236*[#  21]+0.236*[#  25]+0.236*[#  29]+0.236*[#  33]+0.006*[#   7]+
          +0.006*[#   8]+0.006*[#  17]+0.006*[#  18]+0.004*[#   3]+0.004*[#   4]+
          +0.004*[#  13]+0.004*[#  14]+0.002*[#  10]+0.002*[#  20]+0.001*[#   6]+
          +0.001*[#  16]+
    |psi|^2 = 0.998
==== e(  13) =     3.57793 eV ==== 
     psi = 0.090*[#  23]+0.090*[#  24]+0.090*[#  27]+0.090*[#  28]+0.090*[#  31]+
          +0.090*[#  32]+0.090*[#  35]+0.090*[#  36]+0.046*[#  10]+0.046*[#  20]+
          +0.040*[#   5]+0.040*[#  15]+0.030*[#   6]+0.030*[#  16]+0.006*[#   1]+
          +0.006*[#  11]+0.003*[#  21]+0.003*[#  25]+0.003*[#  29]+0.003*[#  33]+
          +0.002*[#  22]+0.002*[#  26]+0.002*[#  30]+0.002*[#  34]+0.002*[#   2]+
          +0.002*[#  12]+0.002*[#   7]+0.002*[#   8]+0.002*[#  17]+0.002*[#  18]+
    |psi|^2 = 0.997
==== e(  14) =     3.87731 eV ==== 
     psi = 0.133*[#   6]+0.133*[#  16]+0.082*[#  23]+0.082*[#  24]+0.082*[#  27]+
          +0.082*[#  28]+0.082*[#  31]+0.082*[#  32]+0.082*[#  35]+0.082*[#  36]+
          +0.032*[#  10]+0.032*[#  20]+0.001*[#   2]+0.001*[#  12]+
    |psi|^2 = 0.997
==== e(  15) =     4.36259 eV ==== 
     psi = 0.079*[#  23]+0.079*[#  24]+0.079*[#  27]+0.079*[#  28]+0.079*[#  31]+
          +0.079*[#  32]+0.079*[#  35]+0.079*[#  36]+0.077*[#   9]+0.077*[#  19]+
          +0.032*[#  22]+0.032*[#  26]+0.032*[#  30]+0.032*[#  34]+0.019*[#   7]+
          +0.019*[#   8]+0.019*[#  17]+0.019*[#  18]+0.001*[#   5]+0.001*[#  15]+
    |psi|^2 = 0.996
==== e(  16) =     4.67883 eV ==== 
     psi = 0.122*[#  22]+0.122*[#  26]+0.122*[#  30]+0.122*[#  34]+0.067*[#   7]+
          +0.067*[#   8]+0.067*[#  17]+0.067*[#  18]+0.027*[#  23]+0.027*[#  24]+
          +0.027*[#  27]+0.027*[#  28]+0.027*[#  31]+0.027*[#  32]+0.027*[#  35]+
          +0.027*[#  36]+0.005*[#  10]+0.005*[#  20]+
    |psi|^2 = 0.996
==== e(  17) =     4.88494 eV ==== 
     psi = 0.090*[#  22]+0.090*[#  26]+0.090*[#  30]+0.090*[#  34]+0.049*[#   7]+
          +0.049*[#   8]+0.049*[#  17]+0.049*[#  18]+0.044*[#  23]+0.044*[#  24]+
          +0.044*[#  27]+0.044*[#  28]+0.044*[#  31]+0.044*[#  32]+0.044*[#  35]+
          +0.044*[#  36]+0.035*[#   9]+0.035*[#  19]+0.004*[#   6]+0.004*[#  16]+
          +0.001*[#  21]+0.001*[#  25]+0.001*[#  29]+0.001*[#  33]+
    |psi|^2 = 0.996
==== e(  18) =     5.96616 eV ==== 
     psi = 0.193*[#  22]+0.193*[#  26]+0.193*[#  30]+0.193*[#  34]+0.016*[#  10]+
          +0.016*[#  20]+0.014*[#   5]+0.014*[#  15]+0.014*[#  23]+0.014*[#  24]+
          +0.014*[#  27]+0.014*[#  28]+0.014*[#  31]+0.014*[#  32]+0.014*[#  35]+
          +0.014*[#  36]+0.008*[#   7]+0.008*[#   8]+0.008*[#  17]+0.008*[#  18]+
          +0.004*[#   2]+0.004*[#  12]+0.002*[#   1]+0.002*[#  11]+0.001*[#  21]+
          +0.001*[#  25]+0.001*[#  29]+0.001*[#  33]+0.001*[#   6]+0.001*[#  16]+
    |psi|^2 = 0.993
==== e(  19) =     6.37112 eV ==== 
     psi = 0.075*[#  22]+0.075*[#  26]+0.075*[#  30]+0.075*[#  34]+0.069*[#  23]+
          +0.069*[#  24]+0.069*[#  27]+0.069*[#  28]+0.069*[#  31]+0.069*[#  32]+
          +0.069*[#  35]+0.069*[#  36]+0.018*[#  10]+0.018*[#  20]+0.017*[#   7]+
          +0.017*[#   8]+0.017*[#  17]+0.017*[#  18]+0.006*[#   9]+0.006*[#  19]+
          +0.003*[#   5]+0.003*[#  15]+0.003*[#  21]+0.003*[#  25]+0.003*[#  29]+
          +0.003*[#  33]+0.001*[#   3]+0.001*[#   4]+0.001*[#  13]+0.001*[#  14]+
    |psi|^2 = 0.992
==== e(  20) =     6.69275 eV ==== 
     psi = 0.078*[#  23]+0.078*[#  24]+0.078*[#  27]+0.078*[#  28]+0.078*[#  31]+
          +0.078*[#  32]+0.078*[#  35]+0.078*[#  36]+0.072*[#  22]+0.072*[#  26]+
          +0.072*[#  30]+0.072*[#  34]+0.019*[#  10]+0.019*[#  20]+0.005*[#   7]+
          +0.005*[#   8]+0.005*[#  17]+0.005*[#  18]+0.004*[#   6]+0.004*[#  16]+
          +0.002*[#   3]+0.002*[#   4]+0.002*[#  13]+0.002*[#  14]+0.001*[#  21]+
          +0.001*[#  25]+0.001*[#  29]+0.001*[#  33]+
    |psi|^2 = 0.991
==== e(  21) =     6.89665 eV ==== 
     psi = 0.145*[#  22]+0.145*[#  26]+0.145*[#  30]+0.145*[#  34]+0.040*[#  23]+
          +0.040*[#  24]+0.040*[#  27]+0.040*[#  28]+0.040*[#  31]+0.040*[#  32]+
          +0.040*[#  35]+0.040*[#  36]+0.013*[#   5]+0.013*[#  15]+0.005*[#  10]+
          +0.005*[#  20]+0.005*[#  21]+0.005*[#  25]+0.005*[#  29]+0.005*[#  33]+
          +0.005*[#   7]+0.005*[#   8]+0.005*[#  17]+0.005*[#  18]+0.004*[#   6]+
          +0.004*[#  16]+0.002*[#   1]+0.002*[#  11]+0.002*[#   2]+0.002*[#  12]+
          +0.001*[#   3]+0.001*[#   4]+0.001*[#  13]+0.001*[#  14]+
    |psi|^2 = 0.994
==== e(  22) =     7.67339 eV ==== 
     psi = 0.102*[#  23]+0.102*[#  24]+0.102*[#  27]+0.102*[#  28]+0.102*[#  31]+
          +0.102*[#  32]+0.102*[#  35]+0.102*[#  36]+0.022*[#   7]+0.022*[#   8]+
          +0.022*[#  17]+0.022*[#  18]+0.014*[#   6]+0.014*[#  16]+0.013*[#  22]+
[...]
          +0.001*[#   6]+0.001*[#  10]+0.001*[#  16]+0.001*[#  20]+
    |psi|^2 = 0.581
==== e(  39) =    23.54627 eV ==== 
     psi = 0.001*[#   7]+0.001*[#   8]+0.001*[#  17]+0.001*[#  18]+0.001*[#  22]+
          +0.001*[#  26]+0.001*[#  30]+0.001*[#  34]+
    |psi|^2 = 0.013
==== e(  40) =    23.54627 eV ==== 
     psi = 0.001*[#   7]+0.001*[#   8]+0.001*[#  17]+0.001*[#  18]+0.001*[#  22]+
          +0.001*[#  26]+0.001*[#  30]+0.001*[#  34]+
    |psi|^2 = 0.013
==== e(  41) =    25.86776 eV ==== 
     psi = 0.151*[#   5]+0.151*[#  15]+0.008*[#  22]+0.008*[#  26]+0.008*[#  30]+
          +0.008*[#  34]+0.005*[#  21]+0.005*[#  25]+0.005*[#  29]+0.005*[#  33]+
          +0.002*[#   1]+0.002*[#  11]+0.002*[#   6]+0.002*[#  16]+0.001*[#  23]+
          +0.001*[#  24]+0.001*[#  27]+0.001*[#  28]+0.001*[#  31]+0.001*[#  32]+
          +0.001*[#  35]+0.001*[#  36]+
    |psi|^2 = 0.377
==== e(  42) =    25.86776 eV ==== 
     psi = 0.151*[#   5]+0.151*[#  15]+0.008*[#  22]+0.008*[#  26]+0.008*[#  30]+
          +0.008*[#  34]+0.005*[#  21]+0.005*[#  25]+0.005*[#  29]+0.005*[#  33]+
          +0.002*[#   1]+0.002*[#  11]+0.002*[#   6]+0.002*[#  16]+0.001*[#  23]+
          +0.001*[#  24]+0.001*[#  27]+0.001*[#  28]+0.001*[#  31]+0.001*[#  32]+
          +0.001*[#  35]+0.001*[#  36]+
    |psi|^2 = 0.377
==== e(  43) =    26.52008 eV ==== 
     psi = 0.002*[#   7]+0.002*[#   8]+0.002*[#  17]+0.002*[#  18]+
    |psi|^2 = 0.010
==== e(  44) =    26.52008 eV ==== 
     psi = 0.002*[#   7]+0.002*[#   8]+0.002*[#  17]+0.002*[#  18]+
    |psi|^2 = 0.010
==== e(  45) =    28.50620 eV ==== 
     psi = 0.003*[#   9]+0.003*[#  19]+
    |psi|^2 = 0.007
==== e(  46) =    28.50620 eV ==== 
     psi = 0.003*[#   9]+0.003*[#  19]+
    |psi|^2 = 0.007
==== e(  47) =    32.74875 eV ==== 
     psi = 0.013*[#   5]+0.013*[#  15]+0.001*[#  10]+0.001*[#  20]+0.001*[#  23]+
          +0.001*[#  24]+0.001*[#  27]+0.001*[#  28]+0.001*[#  31]+0.001*[#  32]+
          +0.001*[#  35]+0.001*[#  36]+0.001*[#   6]+0.001*[#  16]+
    |psi|^2 = 0.044
==== e(  48) =    32.74875 eV ==== 
     psi = 0.013*[#   5]+0.013*[#  15]+0.001*[#  10]+0.001*[#  20]+0.001*[#  23]+
          +0.001*[#  24]+0.001*[#  27]+0.001*[#  28]+0.001*[#  31]+0.001*[#  32]+
          +0.001*[#  35]+0.001*[#  36]+0.001*[#   6]+0.001*[#  16]+
    |psi|^2 = 0.044
==== e(  49) =    33.13055 eV ==== 
     psi = 
    |psi|^2 = 0.003
==== e(  50) =    33.13055 eV ==== 
     psi = 
    |psi|^2 = 0.003
==== e(  51) =    33.83457 eV ==== 
     psi = 
    |psi|^2 = 0.003
==== e(  52) =    33.83457 eV ==== 
     psi = 
    |psi|^2 = 0.003
==== e(  53) =    36.74634 eV ==== 
     psi = 
    |psi|^2 = 0.004
==== e(  54) =    36.74634 eV ==== 
     psi = 
    |psi|^2 = 0.004
==== e(  55) =    38.49672 eV ==== 
     psi = 0.001*[#   5]+0.001*[#  15]+
    |psi|^2 = 0.005
==== e(  56) =    38.49672 eV ==== 
     psi = 0.001*[#   5]+0.001*[#  15]+
    |psi|^2 = 0.005
==== e(  57) =    40.95804 eV ==== 
     psi = 
    |psi|^2 = 0.001
==== e(  58) =    40.95804 eV ==== 
     psi = 
    |psi|^2 = 0.001
==== e(  59) =    41.36848 eV ==== 
     psi = 
    |psi|^2 = 0.001
==== e(  60) =    41.36848 eV ==== 
     psi = 
    |psi|^2 = 0.001
==== e(  61) =    42.46975 eV ==== 
     psi = 
    |psi|^2 = 0.002
==== e(  62) =    42.46975 eV ==== 
     psi = 
    |psi|^2 = 0.002
==== e(  63) =    44.22978 eV ==== 
     psi = 
    |psi|^2 = 0.001
==== e(  64) =    44.22978 eV ==== 
     psi = 
    |psi|^2 = 0.001
==== e(  65) =    45.37516 eV ==== 
     psi = 
    |psi|^2 = 0.002
==== e(  66) =    45.37516 eV ==== 
     psi = 
    |psi|^2 = 0.002
==== e(  67) =    46.29831 eV ==== 
     psi = 
    |psi|^2 = 0.001
==== e(  68) =    46.29831 eV ==== 
     psi = 
    |psi|^2 = 0.001
==== e(  69) =    46.55908 eV ==== 
     psi = 
    |psi|^2 = 0.000

 k =  -0.5000000000 -0.5000000000 -0.7828282828
==== e(   1) =   -48.14600 eV ==== 
     psi = 0.485*[#   1]+0.485*[#  11]+0.004*[#  22]+0.004*[#  26]+0.004*[#  30]+
          +0.004*[#  34]+0.004*[#   5]+0.004*[#  15]+
    |psi|^2 = 1.000
==== e(   2) =   -48.14600 eV ==== 
     psi = 0.485*[#   1]+0.485*[#  11]+0.004*[#  22]+0.004*[#  26]+0.004*[#  30]+
          +0.004*[#  34]+0.004*[#   5]+0.004*[#  15]+
    |psi|^2 = 1.000
==== e(   3) =   -24.72999 eV ==== 
     psi = 0.478*[#   2]+0.478*[#  12]+0.006*[#  21]+0.006*[#  25]+0.006*[#  29]+
          +0.006*[#  33]+0.002*[#  23]+0.002*[#  24]+0.002*[#  27]+0.002*[#  28]+
          +0.002*[#  31]+0.002*[#  32]+0.002*[#  35]+0.002*[#  36]+
    |psi|^2 = 1.000
==== e(   4) =   -24.72999 eV ==== 
     psi = 0.478*[#   2]+0.478*[#  12]+0.006*[#  21]+0.006*[#  25]+0.006*[#  29]+
          +0.006*[#  33]+0.002*[#  23]+0.002*[#  24]+0.002*[#  27]+0.002*[#  28]+
          +0.002*[#  31]+0.002*[#  32]+0.002*[#  35]+0.002*[#  36]+
    |psi|^2 = 1.000
==== e(   5) =   -24.35852 eV ==== 
     psi = 0.245*[#   3]+0.245*[#   4]+0.245*[#  13]+0.245*[#  14]+0.004*[#  22]+
          +0.004*[#  26]+0.004*[#  30]+0.004*[#  34]+
    |psi|^2 = 1.000
==== e(   6) =   -24.35852 eV ==== 
     psi = 0.245*[#   3]+0.245*[#   4]+0.245*[#  13]+0.245*[#  14]+0.004*[#  22]+
          +0.004*[#  26]+0.004*[#  30]+0.004*[#  34]+
    |psi|^2 = 1.000
==== e(   7) =   -24.34917 eV ==== 
     psi = 0.246*[#   3]+0.246*[#   4]+0.246*[#  13]+0.246*[#  14]+0.001*[#  21]+
          +0.001*[#  25]+0.001*[#  29]+0.001*[#  33]+0.001*[#  23]+0.001*[#  24]+
          +0.001*[#  27]+0.001*[#  28]+0.001*[#  31]+0.001*[#  32]+0.001*[#  35]+
          +0.001*[#  36]+
    |psi|^2 = 1.000
==== e(   8) =   -24.34917 eV ==== 
     psi = 0.246*[#   3]+0.246*[#   4]+0.246*[#  13]+0.246*[#  14]+0.001*[#  21]+
          +0.001*[#  25]+0.001*[#  29]+0.001*[#  33]+0.001*[#  23]+0.001*[#  24]+
          +0.001*[#  27]+0.001*[#  28]+0.001*[#  31]+0.001*[#  32]+0.001*[#  35]+
          +0.001*[#  36]+
    |psi|^2 = 1.000
==== e(   9) =    -8.11816 eV ==== 
     psi = 0.223*[#  21]+0.223*[#  25]+0.223*[#  29]+0.223*[#  33]+0.025*[#   7]+
          +0.025*[#   8]+0.025*[#  17]+0.025*[#  18]+0.001*[#   3]+0.001*[#   4]+
          +0.001*[#  13]+0.001*[#  14]+
    |psi|^2 = 0.999
==== e(  10) =    -8.11816 eV ==== 
     psi = 0.223*[#  21]+0.223*[#  25]+0.223*[#  29]+0.223*[#  33]+0.025*[#   7]+
          +0.025*[#   8]+0.025*[#  17]+0.025*[#  18]+0.001*[#   3]+0.001*[#   4]+
          +0.001*[#  13]+0.001*[#  14]+
    |psi|^2 = 0.999
==== e(  11) =    -7.78240 eV ==== 
     psi = 0.230*[#  21]+0.230*[#  25]+0.230*[#  29]+0.230*[#  33]+0.013*[#   2]+
          +0.013*[#  12]+0.012*[#   5]+0.012*[#  15]+0.010*[#  10]+0.010*[#  20]+
          +0.003*[#   6]+0.003*[#  16]+
    |psi|^2 = 0.998
==== e(  12) =    -7.78240 eV ==== 
     psi = 0.230*[#  21]+0.230*[#  25]+0.230*[#  29]+0.230*[#  33]+0.013*[#   2]+
          +0.013*[#  12]+0.012*[#   5]+0.012*[#  15]+0.010*[#  10]+0.010*[#  20]+
          +0.003*[#   6]+0.003*[#  16]+
    |psi|^2 = 0.998
==== e(  13) =     4.17223 eV ==== 
     psi = 0.099*[#  22]+0.099*[#  26]+0.099*[#  30]+0.099*[#  34]+0.050*[#  23]+
          +0.050*[#  24]+0.050*[#  27]+0.050*[#  28]+0.050*[#  31]+0.050*[#  32]+
          +0.050*[#  35]+0.050*[#  36]+0.046*[#   7]+0.046*[#   8]+0.046*[#  17]+
          +0.046*[#  18]+0.003*[#   3]+0.003*[#   4]+0.003*[#  13]+0.003*[#  14]+
    |psi|^2 = 0.994
==== e(  14) =     4.17223 eV ==== 
     psi = 0.099*[#  22]+0.099*[#  26]+0.099*[#  30]+0.099*[#  34]+0.050*[#  23]+
          +0.050*[#  24]+0.050*[#  27]+0.050*[#  28]+0.050*[#  31]+0.050*[#  32]+
          +0.050*[#  35]+0.050*[#  36]+0.046*[#   7]+0.046*[#   8]+0.046*[#  17]+
          +0.046*[#  18]+0.003*[#   3]+0.003*[#   4]+0.003*[#  13]+0.003*[#  14]+
    |psi|^2 = 0.994
==== e(  15) =     4.27194 eV ==== 
     psi = 0.115*[#  22]+0.115*[#  26]+0.115*[#  30]+0.115*[#  34]+0.056*[#   5]+
          +0.056*[#  15]+0.047*[#  23]+0.047*[#  24]+0.047*[#  27]+0.047*[#  28]+
          +0.047*[#  31]+0.047*[#  32]+0.047*[#  35]+0.047*[#  36]+0.010*[#   6]+
          +0.010*[#  16]+0.005*[#   1]+0.005*[#  11]+0.005*[#   2]+0.005*[#  12]+
          +0.004*[#  10]+0.004*[#  20]+
    |psi|^2 = 0.996
==== e(  16) =     4.27194 eV ==== 
     psi = 0.115*[#  22]+0.115*[#  26]+0.115*[#  30]+0.115*[#  34]+0.056*[#   5]+
          +0.056*[#  15]+0.047*[#  23]+0.047*[#  24]+0.047*[#  27]+0.047*[#  28]+
          +0.047*[#  31]+0.047*[#  32]+0.047*[#  35]+0.047*[#  36]+0.010*[#   6]+
          +0.010*[#  16]+0.005*[#   1]+0.005*[#  11]+0.005*[#   2]+0.005*[#  12]+
          +0.004*[#  10]+0.004*[#  20]+
    |psi|^2 = 0.996
==== e(  17) =     5.27133 eV ==== 
     psi = 0.121*[#  10]+0.121*[#  20]+0.073*[#  22]+0.073*[#  26]+0.073*[#  30]+
          +0.073*[#  34]+0.054*[#  23]+0.054*[#  24]+0.054*[#  27]+0.054*[#  28]+
          +0.054*[#  31]+0.054*[#  32]+0.054*[#  35]+0.054*[#  36]+0.011*[#   6]+
          +0.011*[#  16]+0.003*[#   2]+0.003*[#  12]+0.002*[#   5]+0.002*[#  15]+
    |psi|^2 = 0.997
==== e(  18) =     5.27133 eV ==== 
     psi = 0.121*[#  10]+0.121*[#  20]+0.073*[#  22]+0.073*[#  26]+0.073*[#  30]+
          +0.073*[#  34]+0.054*[#  23]+0.054*[#  24]+0.054*[#  27]+0.054*[#  28]+
          +0.054*[#  31]+0.054*[#  32]+0.054*[#  35]+0.054*[#  36]+0.011*[#   6]+
          +0.011*[#  16]+0.003*[#   2]+0.003*[#  12]+0.002*[#   5]+0.002*[#  15]+
    |psi|^2 = 0.997
==== e(  19) =     6.08020 eV ==== 
     psi = 0.099*[#  23]+0.099*[#  24]+0.099*[#  27]+0.099*[#  28]+0.099*[#  31]+
          +0.099*[#  32]+0.099*[#  35]+0.099*[#  36]+0.045*[#   7]+0.045*[#   8]+
          +0.045*[#  17]+0.045*[#  18]+0.005*[#  21]+0.005*[#  25]+0.005*[#  29]+
          +0.005*[#  33]+0.002*[#   3]+0.002*[#   4]+0.002*[#  13]+0.002*[#  14]+
    |psi|^2 = 0.993
==== e(  20) =     6.08020 eV ==== 
     psi = 0.099*[#  23]+0.099*[#  24]+0.099*[#  27]+0.099*[#  28]+0.099*[#  31]+
          +0.099*[#  32]+0.099*[#  35]+0.099*[#  36]+0.045*[#   7]+0.045*[#   8]+
          +0.045*[#  17]+0.045*[#  18]+0.005*[#  21]+0.005*[#  25]+0.005*[#  29]+
          +0.005*[#  33]+0.002*[#   3]+0.002*[#   4]+0.002*[#  13]+0.002*[#  14]+
    |psi|^2 = 0.993
==== e(  21) =     7.53363 eV ==== 
     psi = 0.112*[#  23]+0.112*[#  24]+0.112*[#  27]+0.112*[#  28]+0.112*[#  31]+
          +0.112*[#  32]+0.112*[#  35]+0.112*[#  36]+0.049*[#   9]+0.049*[#  19]+
    |psi|^2 = 0.996
==== e(  22) =     7.53363 eV ==== 
     psi = 0.112*[#  23]+0.112*[#  24]+0.112*[#  27]+0.112*[#  28]+0.112*[#  31]+
          +0.112*[#  32]+0.112*[#  35]+0.112*[#  36]+0.049*[#   9]+0.049*[#  19]+
    |psi|^2 = 0.996
==== e(  23) =     7.95067 eV ==== 
     psi = 0.140*[#  22]+0.140*[#  26]+0.140*[#  30]+0.140*[#  34]+0.048*[#  23]+
          +0.048*[#  24]+0.048*[#  27]+0.048*[#  28]+0.048*[#  31]+0.048*[#  32]+
          +0.048*[#  35]+0.048*[#  36]+0.010*[#   7]+0.010*[#   8]+0.010*[#  17]+
          +0.010*[#  18]+0.002*[#   3]+0.002*[#   4]+0.002*[#  13]+0.002*[#  14]+
    |psi|^2 = 0.995
==== e(  24) =     7.95067 eV ==== 
     psi = 0.140*[#  22]+0.140*[#  26]+0.140*[#  30]+0.140*[#  34]+0.048*[#  23]+
          +0.048*[#  24]+0.048*[#  27]+0.048*[#  28]+0.048*[#  31]+0.048*[#  32]+
          +0.048*[#  35]+0.048*[#  36]+0.010*[#   7]+0.010*[#   8]+0.010*[#  17]+
          +0.010*[#  18]+0.002*[#   3]+0.002*[#   4]+0.002*[#  13]+0.002*[#  14]+
    |psi|^2 = 0.995
==== e(  25) =    11.18849 eV ==== 
     psi = 0.446*[#   9]+0.446*[#  19]+0.012*[#  23]+0.012*[#  24]+0.012*[#  27]+
          +0.012*[#  28]+0.012*[#  31]+0.012*[#  32]+0.012*[#  35]+0.012*[#  36]+
    |psi|^2 = 0.990
==== e(  26) =    11.18849 eV ==== 
     psi = 0.446*[#   9]+0.446*[#  19]+0.012*[#  23]+0.012*[#  24]+0.012*[#  27]+
          +0.012*[#  28]+0.012*[#  31]+0.012*[#  32]+0.012*[#  35]+0.012*[#  36]+
    |psi|^2 = 0.990
==== e(  27) =    11.85722 eV ==== 
     psi = 0.422*[#   6]+0.422*[#  16]+0.062*[#  10]+0.062*[#  20]+0.006*[#  22]+
          +0.006*[#  26]+0.006*[#  30]+0.006*[#  34]+
    |psi|^2 = 0.997
==== e(  28) =    11.85722 eV ==== 
     psi = 0.422*[#   6]+0.422*[#  16]+0.062*[#  10]+0.062*[#  20]+0.006*[#  22]+
          +0.006*[#  26]+0.006*[#  30]+0.006*[#  34]+
    |psi|^2 = 0.997
==== e(  29) =    11.98559 eV ==== 
     psi = 0.191*[#   7]+0.191*[#   8]+0.191*[#  17]+0.191*[#  18]+0.025*[#  23]+
          +0.025*[#  24]+0.025*[#  27]+0.025*[#  28]+0.025*[#  31]+0.025*[#  32]+
          +0.025*[#  35]+0.025*[#  36]+0.004*[#  22]+0.004*[#  26]+0.004*[#  30]+
          +0.004*[#  34]+
    |psi|^2 = 0.986
==== e(  30) =    11.98559 eV ==== 
     psi = 0.191*[#   7]+0.191*[#   8]+0.191*[#  17]+0.191*[#  18]+0.025*[#  23]+
          +0.025*[#  24]+0.025*[#  27]+0.025*[#  28]+0.025*[#  31]+0.025*[#  32]+
          +0.025*[#  35]+0.025*[#  36]+0.004*[#  22]+0.004*[#  26]+0.004*[#  30]+
          +0.004*[#  34]+
    |psi|^2 = 0.986
==== e(  31) =    14.29467 eV ==== 
     psi = 0.301*[#  10]+0.301*[#  20]+0.051*[#   6]+0.051*[#  16]+0.028*[#  22]+
          +0.028*[#  26]+0.028*[#  30]+0.028*[#  34]+0.017*[#  23]+0.017*[#  24]+
          +0.017*[#  27]+0.017*[#  28]+0.017*[#  31]+0.017*[#  32]+0.017*[#  35]+
          +0.017*[#  36]+0.007*[#  21]+0.007*[#  25]+0.007*[#  29]+0.007*[#  33]+
          +0.003*[#   5]+0.003*[#  15]+
    |psi|^2 = 0.988
==== e(  32) =    14.29467 eV ==== 
     psi = 0.301*[#  10]+0.301*[#  20]+0.051*[#   6]+0.051*[#  16]+0.028*[#  22]+
          +0.028*[#  26]+0.028*[#  30]+0.028*[#  34]+0.017*[#  23]+0.017*[#  24]+
          +0.017*[#  27]+0.017*[#  28]+0.017*[#  31]+0.017*[#  32]+0.017*[#  35]+
          +0.017*[#  36]+0.007*[#  21]+0.007*[#  25]+0.007*[#  29]+0.007*[#  33]+
          +0.003*[#   5]+0.003*[#  15]+
    |psi|^2 = 0.988
==== e(  33) =    14.73566 eV ==== 
     psi = 0.180*[#   7]+0.180*[#   8]+0.180*[#  17]+0.180*[#  18]+0.024*[#  23]+
          +0.024*[#  24]+0.024*[#  27]+0.024*[#  28]+0.024*[#  31]+0.024*[#  32]+
          +0.024*[#  35]+0.024*[#  36]+0.020*[#  21]+0.020*[#  25]+0.020*[#  29]+
          +0.020*[#  33]+
    |psi|^2 = 0.995
==== e(  34) =    14.73566 eV ==== 
     psi = 0.180*[#   7]+0.180*[#   8]+0.180*[#  17]+0.180*[#  18]+0.024*[#  23]+
          +0.024*[#  24]+0.024*[#  27]+0.024*[#  28]+0.024*[#  31]+0.024*[#  32]+
          +0.024*[#  35]+0.024*[#  36]+0.020*[#  21]+0.020*[#  25]+0.020*[#  29]+
          +0.020*[#  33]+
    |psi|^2 = 0.995
==== e(  35) =    20.28909 eV ==== 
     psi = 
    |psi|^2 = 0.004
==== e(  36) =    20.28909 eV ==== 
     psi = 
    |psi|^2 = 0.004
==== e(  37) =    22.82351 eV ==== 
     psi = 0.016*[#   5]+0.016*[#  15]+
    |psi|^2 = 0.038
==== e(  38) =    22.82351 eV ==== 
     psi = 0.016*[#   5]+0.016*[#  15]+
    |psi|^2 = 0.038
==== e(  39) =    23.10186 eV ==== 
     psi = 
    |psi|^2 = 0.009
==== e(  40) =    23.10186 eV ==== 
     psi = 
    |psi|^2 = 0.009
==== e(  41) =    25.52073 eV ==== 
     psi = 0.390*[#   5]+0.390*[#  15]+0.022*[#  22]+0.022*[#  26]+0.022*[#  30]+
          +0.022*[#  34]+0.009*[#   1]+0.009*[#  11]+0.005*[#  21]+0.005*[#  25]+
          +0.005*[#  29]+0.005*[#  33]+0.002*[#   6]+0.002*[#  16]+0.002*[#  23]+
          +0.002*[#  24]+0.002*[#  27]+0.002*[#  28]+0.002*[#  31]+0.002*[#  32]+
          +0.002*[#  35]+0.002*[#  36]+
    |psi|^2 = 0.927
==== e(  42) =    25.52073 eV ==== 
     psi = 0.390*[#   5]+0.390*[#  15]+0.022*[#  22]+0.022*[#  26]+0.022*[#  30]+
          +0.022*[#  34]+0.009*[#   1]+0.009*[#  11]+0.005*[#  21]+0.005*[#  25]+
          +0.005*[#  29]+0.005*[#  33]+0.002*[#   6]+0.002*[#  16]+0.002*[#  23]+
          +0.002*[#  24]+0.002*[#  27]+0.002*[#  28]+0.002*[#  31]+0.002*[#  32]+
          +0.002*[#  35]+0.002*[#  36]+
    |psi|^2 = 0.927
==== e(  43) =    27.42603 eV ==== 
     psi = 0.002*[#   7]+0.002*[#   8]+0.002*[#  17]+0.002*[#  18]+
    |psi|^2 = 0.010
==== e(  44) =    27.42603 eV ==== 
     psi = 0.002*[#   7]+0.002*[#   8]+0.002*[#  17]+0.002*[#  18]+
    |psi|^2 = 0.010
==== e(  45) =    28.15994 eV ==== 
     psi = 0.004*[#   9]+0.004*[#  19]+
    |psi|^2 = 0.009
==== e(  46) =    28.15994 eV ==== 
     psi = 0.004*[#   9]+0.004*[#  19]+
    |psi|^2 = 0.009
==== e(  47) =    32.26318 eV ==== 
     psi = 
    |psi|^2 = 0.004
==== e(  48) =    32.26318 eV ==== 
     psi = 
    |psi|^2 = 0.004
==== e(  49) =    32.42023 eV ==== 
     psi = 0.013*[#   5]+0.013*[#  15]+0.001*[#  23]+0.001*[#  24]+0.001*[#  27]+
          +0.001*[#  28]+0.001*[#  31]+0.001*[#  32]+0.001*[#  35]+0.001*[#  36]+
          +0.001*[#  10]+0.001*[#  20]+
    |psi|^2 = 0.044
==== e(  50) =    32.42023 eV ==== 
     psi = 0.013*[#   5]+0.013*[#  15]+0.001*[#  23]+0.001*[#  24]+0.001*[#  27]+
          +0.001*[#  28]+0.001*[#  31]+0.001*[#  32]+0.001*[#  35]+0.001*[#  36]+
          +0.001*[#  10]+0.001*[#  20]+
    |psi|^2 = 0.044
==== e(  51) =    34.76503 eV ==== 
     psi = 
    |psi|^2 = 0.003
==== e(  52) =    34.76503 eV ==== 
     psi = 
    |psi|^2 = 0.003
==== e(  53) =    37.10446 eV ==== 
     psi = 
    |psi|^2 = 0.004
==== e(  54) =    37.10446 eV ==== 
     psi = 
    |psi|^2 = 0.004
==== e(  55) =    39.39184 eV ==== 
     psi = 
    |psi|^2 = 0.002
==== e(  56) =    39.39184 eV ==== 
     psi = 
    |psi|^2 = 0.002
==== e(  57) =    41.78193 eV ==== 
     psi = 
    |psi|^2 = 0.000
==== e(  58) =    41.78193 eV ==== 
     psi = 
    |psi|^2 = 0.000
==== e(  59) =    41.80830 eV ==== 
     psi = 
    |psi|^2 = 0.001
==== e(  60) =    41.80830 eV ==== 
     psi = 
    |psi|^2 = 0.001
==== e(  61) =    42.79377 eV ==== 
     psi = 
    |psi|^2 = 0.001
==== e(  62) =    42.79377 eV ==== 
     psi = 
    |psi|^2 = 0.001
==== e(  63) =    43.27125 eV ==== 
     psi = 
    |psi|^2 = 0.000
==== e(  64) =    43.27125 eV ==== 
     psi = 
    |psi|^2 = 0.000
==== e(  65) =    43.98252 eV ==== 
     psi = 
    |psi|^2 = 0.001
==== e(  66) =    43.98252 eV ==== 
     psi = 
    |psi|^2 = 0.001
==== e(  67) =    46.11687 eV ==== 
     psi = 
    |psi|^2 = 0.000
==== e(  68) =    46.11687 eV ==== 
     psi = 
    |psi|^2 = 0.000
==== e(  69) =    46.49357 eV ==== 
     psi = 
    |psi|^2 = 0.002

Lowdin Charges: 

     Atom #   1: total charge =  10.3862, s =  2.4075, p =  5.9932, d =  1.9856, 
                 spin up      =   5.1931, s =  1.2037, p =  2.9966, d =  0.9928, 
                 spin down    =   5.1931, s =  1.2037, p =  2.9966, d =  0.9928, 
                 polarization =   0.0000, s =  0.0000, p =  0.0000, d =  0.0000, 
     Atom #   2: total charge =  10.3862, s =  2.4075, p =  5.9932, d =  1.9856, 
                 spin up      =   5.1931, s =  1.2037, p =  2.9966, d =  0.9928, 
                 spin down    =   5.1931, s =  1.2037, p =  2.9966, d =  0.9928, 
                 polarization =   0.0000, s =  0.0000, p =  0.0000, d =  0.0000, 
     Atom #   3: total charge =   6.7691, s =  1.8080, p =  4.9610, d =  0.0000, 
                 spin up      =   3.3845, s =  0.9040, p =  2.4805, d =  0.0000, 
                 spin down    =   3.3845, s =  0.9040, p =  2.4805, d =  0.0000, 
                 polarization =   0.0000, s =  0.0000, p =  0.0000, d =  0.0000, 
     Atom #   4: total charge =   6.7691, s =  1.8080, p =  4.9610, d =  0.0000, 
                 spin up      =   3.3845, s =  0.9040, p =  2.4805, d =  0.0000, 
                 spin down    =   3.3845, s =  0.9040, p =  2.4805, d =  0.0000, 
                 polarization =   0.0000, s =  0.0000, p =  0.0000, d =  0.0000, 
     Atom #   5: total charge =   6.7691, s =  1.8080, p =  4.9610, d =  0.0000, 
                 spin up      =   3.3845, s =  0.9040, p =  2.4805, d =  0.0000, 
                 spin down    =   3.3845, s =  0.9040, p =  2.4805, d =  0.0000, 
                 polarization =   0.0000, s =  0.0000, p =  0.0000, d =  0.0000, 
     Atom #   6: total charge =   6.7691, s =  1.8080, p =  4.9610, d =  0.0000, 
                 spin up      =   3.3845, s =  0.9040, p =  2.4805, d =  0.0000, 
                 spin down    =   3.3845, s =  0.9040, p =  2.4805, d =  0.0000, 
                 polarization =   0.0000, s =  0.0000, p =  0.0000, d =  0.0000, 
     Spilling Parameter:   0.0032
