loading modules
dropbox is Dropbox isn't running!

     Program PWSCF v.5.0.2 (svn rev. 9656) starts on 26Aug2014 at 11:27:48 

     This program is part of the open-source Quantum ESPRESSO suite
     for quantum simulation of materials; please cite
         "P. Giannozzi et al., J. Phys.:Condens. Matter 21 395502 (2009);
          URL http://www.quantum-espresso.org", 
     in publications or presentations arising from this work. More details at
     http://www.quantum-espresso.org/quote.php

     Parallel version (MPI), running on     4 processors
     K-points division:     npool     =       4

     Current dimensions of program PWSCF are:
     Max number of different atomic species (ntypx) = 10
     Max number of k-points (npk) =  40000
     Max angular momentum in pseudopotentials (lmaxx) =  3
     Reading input from pwscf.in
Warning: card &IONS ignored
Warning: card / ignored
Warning: card &CELL ignored
Warning: card / ignored

     Subspace diagonalization in iterative solution of the eigenvalue problem:
     a serial algorithm will be used

 
     G-vector sticks info
     --------------------
     sticks:   dense  smooth     PW     G-vecs:    dense   smooth      PW
     Sum        3077     973    305                81835    14755    2581
 


     bravais-lattice index     =            0
     lattice parameter (alat)  =       8.7872  a.u.
     unit-cell volume          =     433.3701 (a.u.)^3
     number of atoms/cell      =            6
     number of atomic types    =            2
     number of electrons       =        48.00
     number of Kohn-Sham states=           69
     kinetic-energy cutoff     =      40.0000  Ry
     charge density cutoff     =     500.0000  Ry
     convergence threshold     =      1.0E-06
     mixing beta               =       0.7000
     number of iterations used =            8  plain     mixing
     Exchange-correlation      = SLA  PW   PBE  PBE ( 1 4 3 4 0)
     EXX-fraction              =        0.00

     celldm(1)=   8.787227  celldm(2)=   0.000000  celldm(3)=   0.000000
     celldm(4)=   0.000000  celldm(5)=   0.000000  celldm(6)=   0.000000

     crystal axes: (cart. coord. in units of alat)
               a(1) = (   1.000000   0.000000   0.000000 )  
               a(2) = (   0.000000   1.000000   0.000000 )  
               a(3) = (   0.000000   0.000000   0.638710 )  

     reciprocal axes: (cart. coord. in units 2 pi/alat)
               b(1) = (  1.000000  0.000000  0.000000 )  
               b(2) = (  0.000000  1.000000  0.000000 )  
               b(3) = (  0.000000  0.000000  1.565657 )  


     PseudoPot. # 1 for Ti read from file:
     /home-research/zhongnanxu/pseudopotentials/gbrv_espresso_pseudo/ti_pbe_v1.uspp.F.UPF
     MD5 check sum: bcc8f6961b3b91f0cac3ca967d22d0fb
     Pseudo is Ultrasoft + core correction, Zval = 12.0
     Generated by new atomic code, or converted to UPF format
     Using radial grid of  851 points,  6 beta functions with: 
                l(1) =   0
                l(2) =   0
                l(3) =   1
                l(4) =   1
                l(5) =   2
                l(6) =   2
     Q(r) pseudized with  6 coefficients,  rinner =    1.000   1.000   1.000
                                                       1.000   1.000

     PseudoPot. # 2 for O  read from file:
     /home-research/zhongnanxu/pseudopotentials/gbrv_espresso_pseudo/o_pbe_v1.2.uspp.F.UPF
     MD5 check sum: 734c27235a0248c51dbae37a1fbe46ec
     Pseudo is Ultrasoft + core correction, Zval =  6.0
     Generated by new atomic code, or converted to UPF format
     Using radial grid of  737 points,  5 beta functions with: 
                l(1) =   0
                l(2) =   0
                l(3) =   1
                l(4) =   1
                l(5) =   2
     Q(r) pseudized with  8 coefficients,  rinner =    0.900   0.900   0.900
                                                       0.900   0.900

     atomic species   valence    mass     pseudopotential
        Ti0           12.00    47.88000     Ti( 1.00)
        O1             6.00    15.99940     O ( 1.00)

     Starting magnetic structure 
     atomic species   magnetization
        Ti0          1.000
        O1           0.000

     16 Sym. Ops., with inversion, found ( 8 have fractional translation)



   Cartesian axes

     site n.     atom                  positions (alat units)
         1           Ti0 tau(   1) = (   0.0000000   0.0000000   0.0000000  )
         2           Ti0 tau(   2) = (   0.5000000   0.5000000   0.3193548  )
         3           O1  tau(   3) = (   0.3100000   0.3100000   0.0000000  )
         4           O1  tau(   4) = (  -0.3100000  -0.3100000   0.0000000  )
         5           O1  tau(   5) = (   0.8100000   0.1900000   0.3193548  )
         6           O1  tau(   6) = (   0.1900000   0.8100000   0.3193548  )

     number of k points=    80  Methfessel-Paxton smearing, width (Ry)=  0.0100
                       cart. coord. in units 2pi/alat
        k(    1) = (   0.0000000   0.0000000   0.0000000), wk =   0.0046296
        k(    2) = (   0.0000000   0.0000000   0.2609428), wk =   0.0092593
        k(    3) = (   0.0000000   0.0000000   0.5218855), wk =   0.0092593
        k(    4) = (   0.0000000   0.0000000  -0.7828283), wk =   0.0046296
        k(    5) = (   0.0000000   0.1666667   0.0000000), wk =   0.0185185
        k(    6) = (   0.0000000   0.1666667   0.2609428), wk =   0.0370370
        k(    7) = (   0.0000000   0.1666667   0.5218855), wk =   0.0370370
        k(    8) = (   0.0000000   0.1666667  -0.7828283), wk =   0.0185185
        k(    9) = (   0.0000000   0.3333333   0.0000000), wk =   0.0185185
        k(   10) = (   0.0000000   0.3333333   0.2609428), wk =   0.0370370
        k(   11) = (   0.0000000   0.3333333   0.5218855), wk =   0.0370370
        k(   12) = (   0.0000000   0.3333333  -0.7828283), wk =   0.0185185
        k(   13) = (   0.0000000  -0.5000000   0.0000000), wk =   0.0092593
        k(   14) = (   0.0000000  -0.5000000   0.2609428), wk =   0.0185185
        k(   15) = (   0.0000000  -0.5000000   0.5218855), wk =   0.0185185
        k(   16) = (   0.0000000  -0.5000000  -0.7828283), wk =   0.0092593
        k(   17) = (   0.1666667   0.1666667   0.0000000), wk =   0.0185185
        k(   18) = (   0.1666667   0.1666667   0.2609428), wk =   0.0370370
        k(   19) = (   0.1666667   0.1666667   0.5218855), wk =   0.0370370
        k(   20) = (   0.1666667   0.1666667  -0.7828283), wk =   0.0185185
        k(   21) = (   0.1666667   0.3333333   0.0000000), wk =   0.0370370
        k(   22) = (   0.1666667   0.3333333   0.2609428), wk =   0.0740741
        k(   23) = (   0.1666667   0.3333333   0.5218855), wk =   0.0740741
        k(   24) = (   0.1666667   0.3333333  -0.7828283), wk =   0.0370370
        k(   25) = (   0.1666667  -0.5000000   0.0000000), wk =   0.0185185
        k(   26) = (   0.1666667  -0.5000000   0.2609428), wk =   0.0370370
        k(   27) = (   0.1666667  -0.5000000   0.5218855), wk =   0.0370370
        k(   28) = (   0.1666667  -0.5000000  -0.7828283), wk =   0.0185185
        k(   29) = (   0.3333333   0.3333333   0.0000000), wk =   0.0185185
        k(   30) = (   0.3333333   0.3333333   0.2609428), wk =   0.0370370
        k(   31) = (   0.3333333   0.3333333   0.5218855), wk =   0.0370370
        k(   32) = (   0.3333333   0.3333333  -0.7828283), wk =   0.0185185
        k(   33) = (   0.3333333  -0.5000000   0.0000000), wk =   0.0185185
        k(   34) = (   0.3333333  -0.5000000   0.2609428), wk =   0.0370370
        k(   35) = (   0.3333333  -0.5000000   0.5218855), wk =   0.0370370
        k(   36) = (   0.3333333  -0.5000000  -0.7828283), wk =   0.0185185
        k(   37) = (  -0.5000000  -0.5000000   0.0000000), wk =   0.0046296
        k(   38) = (  -0.5000000  -0.5000000   0.2609428), wk =   0.0092593
        k(   39) = (  -0.5000000  -0.5000000   0.5218855), wk =   0.0092593
        k(   40) = (  -0.5000000  -0.5000000  -0.7828283), wk =   0.0046296
        k(   41) = (   0.0000000   0.0000000   0.0000000), wk =   0.0046296
        k(   42) = (   0.0000000   0.0000000   0.2609428), wk =   0.0092593
        k(   43) = (   0.0000000   0.0000000   0.5218855), wk =   0.0092593
        k(   44) = (   0.0000000   0.0000000  -0.7828283), wk =   0.0046296
        k(   45) = (   0.0000000   0.1666667   0.0000000), wk =   0.0185185
        k(   46) = (   0.0000000   0.1666667   0.2609428), wk =   0.0370370
        k(   47) = (   0.0000000   0.1666667   0.5218855), wk =   0.0370370
        k(   48) = (   0.0000000   0.1666667  -0.7828283), wk =   0.0185185
        k(   49) = (   0.0000000   0.3333333   0.0000000), wk =   0.0185185
        k(   50) = (   0.0000000   0.3333333   0.2609428), wk =   0.0370370
        k(   51) = (   0.0000000   0.3333333   0.5218855), wk =   0.0370370
        k(   52) = (   0.0000000   0.3333333  -0.7828283), wk =   0.0185185
        k(   53) = (   0.0000000  -0.5000000   0.0000000), wk =   0.0092593
        k(   54) = (   0.0000000  -0.5000000   0.2609428), wk =   0.0185185
        k(   55) = (   0.0000000  -0.5000000   0.5218855), wk =   0.0185185
        k(   56) = (   0.0000000  -0.5000000  -0.7828283), wk =   0.0092593
        k(   57) = (   0.1666667   0.1666667   0.0000000), wk =   0.0185185
        k(   58) = (   0.1666667   0.1666667   0.2609428), wk =   0.0370370
        k(   59) = (   0.1666667   0.1666667   0.5218855), wk =   0.0370370
        k(   60) = (   0.1666667   0.1666667  -0.7828283), wk =   0.0185185
        k(   61) = (   0.1666667   0.3333333   0.0000000), wk =   0.0370370
        k(   62) = (   0.1666667   0.3333333   0.2609428), wk =   0.0740741
        k(   63) = (   0.1666667   0.3333333   0.5218855), wk =   0.0740741
        k(   64) = (   0.1666667   0.3333333  -0.7828283), wk =   0.0370370
        k(   65) = (   0.1666667  -0.5000000   0.0000000), wk =   0.0185185
        k(   66) = (   0.1666667  -0.5000000   0.2609428), wk =   0.0370370
        k(   67) = (   0.1666667  -0.5000000   0.5218855), wk =   0.0370370
        k(   68) = (   0.1666667  -0.5000000  -0.7828283), wk =   0.0185185
        k(   69) = (   0.3333333   0.3333333   0.0000000), wk =   0.0185185
        k(   70) = (   0.3333333   0.3333333   0.2609428), wk =   0.0370370
        k(   71) = (   0.3333333   0.3333333   0.5218855), wk =   0.0370370
        k(   72) = (   0.3333333   0.3333333  -0.7828283), wk =   0.0185185
        k(   73) = (   0.3333333  -0.5000000   0.0000000), wk =   0.0185185
        k(   74) = (   0.3333333  -0.5000000   0.2609428), wk =   0.0370370
        k(   75) = (   0.3333333  -0.5000000   0.5218855), wk =   0.0370370
        k(   76) = (   0.3333333  -0.5000000  -0.7828283), wk =   0.0185185
        k(   77) = (  -0.5000000  -0.5000000   0.0000000), wk =   0.0046296
        k(   78) = (  -0.5000000  -0.5000000   0.2609428), wk =   0.0092593
        k(   79) = (  -0.5000000  -0.5000000   0.5218855), wk =   0.0092593
        k(   80) = (  -0.5000000  -0.5000000  -0.7828283), wk =   0.0046296

     Dense  grid:    81835 G-vectors     FFT dimensions: (  64,  64,  40)

     Smooth grid:    14755 G-vectors     FFT dimensions: (  36,  36,  24)

     Largest allocated arrays     est. size (Mb)     dimensions
        Kohn-Sham Wavefunctions         1.97 Mb     (   1872,   69)
        NL pseudopotentials             2.51 Mb     (   1872,   88)
        Each V/rho on FFT grid          5.00 Mb     ( 163840,   2)
        Each G-vector array             0.62 Mb     (  81835)
        G-vector shells                 0.04 Mb     (   4611)
     Largest temporary arrays     est. size (Mb)     dimensions
        Auxiliary wavefunctions         7.88 Mb     (   1872,  276)
        Each subspace H/S matrix        1.16 Mb     ( 276, 276)
        Each <psi_i|beta_j> matrix      0.09 Mb     (     88,   69)
        Arrays for rho mixing          20.00 Mb     ( 163840,   8)

     Check: negative/imaginary core charge=   -0.000011    0.000000

     Initial potential from superposition of free atoms
     Check: negative starting charge=(component1):   -0.025721

     starting charge   45.99991, renormalised to   48.00000

     negative rho (up, down):  0.268E-01 0.000E+00
     Starting wfc are   36 randomized atomic wfcs

     total cpu time spent up to now is       11.2 secs

     per-process dynamical memory:    63.7 Mb

     Self-consistent Calculation

     iteration #  1     ecut=    40.00 Ry     beta=0.70
     Davidson diagonalization with overlap
     ethr =  1.00E-02,  avg # of iterations =  5.1

     negative rho (up, down):  0.173E-01 0.103E-01

     total cpu time spent up to now is       54.6 secs

     total energy              =    -365.42805035 Ry
     Harris-Foulkes estimate   =    -360.70034279 Ry
     estimated scf accuracy    <       5.07678334 Ry

     total magnetization       =     0.00 Bohr mag/cell
     absolute magnetization    =     3.07 Bohr mag/cell

     iteration #  2     ecut=    40.00 Ry     beta=0.70
     Davidson diagonalization with overlap
     ethr =  1.00E-02,  avg # of iterations =  1.5

     negative rho (up, down):  0.982E-02 0.901E-02

     total cpu time spent up to now is       77.5 secs

     total energy              =    -361.78105451 Ry
     Harris-Foulkes estimate   =    -368.23478199 Ry
     estimated scf accuracy    <      20.77444303 Ry

     total magnetization       =     3.06 Bohr mag/cell
     absolute magnetization    =     6.38 Bohr mag/cell

     iteration #  3     ecut=    40.00 Ry     beta=0.70
     Davidson diagonalization with overlap
     ethr =  1.00E-02,  avg # of iterations =  1.1

     negative rho (up, down):  0.580E-02 0.132E-01

     total cpu time spent up to now is       98.8 secs

     total energy              =    -366.90929060 Ry
     Harris-Foulkes estimate   =    -366.95811834 Ry
     estimated scf accuracy    <       2.53866826 Ry

     total magnetization       =     0.00 Bohr mag/cell
     absolute magnetization    =     1.06 Bohr mag/cell

     iteration #  4     ecut=    40.00 Ry     beta=0.70
     Davidson diagonalization with overlap
     ethr =  5.29E-03,  avg # of iterations =  1.0

     negative rho (up, down):  0.700E-02 0.134E-01

     total cpu time spent up to now is      121.1 secs

     total energy              =    -366.89394041 Ry
     Harris-Foulkes estimate   =    -366.99352261 Ry
     estimated scf accuracy    <       0.82953850 Ry

     total magnetization       =     0.00 Bohr mag/cell
     absolute magnetization    =     0.44 Bohr mag/cell

     iteration #  5     ecut=    40.00 Ry     beta=0.70
     Davidson diagonalization with overlap
     ethr =  1.73E-03,  avg # of iterations =  1.0

     negative rho (up, down):  0.106E-01 0.137E-01

     total cpu time spent up to now is      143.7 secs

     total energy              =    -366.72473266 Ry
     Harris-Foulkes estimate   =    -366.90141394 Ry
     estimated scf accuracy    <       0.51425116 Ry

     total magnetization       =     0.00 Bohr mag/cell
     absolute magnetization    =     0.40 Bohr mag/cell

     iteration #  6     ecut=    40.00 Ry     beta=0.70
     Davidson diagonalization with overlap
     ethr =  1.07E-03,  avg # of iterations =  1.1

     negative rho (up, down):  0.129E-01 0.132E-01

     total cpu time spent up to now is      166.2 secs

     total energy              =    -366.78349471 Ry
     Harris-Foulkes estimate   =    -366.78711013 Ry
     estimated scf accuracy    <       0.00815506 Ry

     total magnetization       =     0.00 Bohr mag/cell
     absolute magnetization    =     0.24 Bohr mag/cell

     iteration #  7     ecut=    40.00 Ry     beta=0.70
     Davidson diagonalization with overlap
     ethr =  1.70E-05,  avg # of iterations =  3.7

     negative rho (up, down):  0.129E-01 0.126E-01

     total cpu time spent up to now is      196.6 secs

     total energy              =    -366.78577395 Ry
     Harris-Foulkes estimate   =    -366.79040324 Ry
     estimated scf accuracy    <       0.01576109 Ry

     total magnetization       =     0.00 Bohr mag/cell
     absolute magnetization    =     0.02 Bohr mag/cell

     iteration #  8     ecut=    40.00 Ry     beta=0.70
     Davidson diagonalization with overlap
     ethr =  1.70E-05,  avg # of iterations =  1.0

     negative rho (up, down):  0.128E-01 0.127E-01

     total cpu time spent up to now is      218.8 secs

     total energy              =    -366.78764078 Ry
     Harris-Foulkes estimate   =    -366.78760144 Ry
     estimated scf accuracy    <       0.00022254 Ry

     total magnetization       =     0.00 Bohr mag/cell
     absolute magnetization    =     0.01 Bohr mag/cell

     iteration #  9     ecut=    40.00 Ry     beta=0.70
     Davidson diagonalization with overlap
     ethr =  4.64E-07,  avg # of iterations =  1.4

     negative rho (up, down):  0.127E-01 0.127E-01

     total cpu time spent up to now is      242.0 secs

     total energy              =    -366.78757888 Ry
     Harris-Foulkes estimate   =    -366.78764700 Ry
     estimated scf accuracy    <       0.00023397 Ry

     total magnetization       =     0.00 Bohr mag/cell
     absolute magnetization    =     0.00 Bohr mag/cell

     iteration # 10     ecut=    40.00 Ry     beta=0.70
     Davidson diagonalization with overlap
     ethr =  4.64E-07,  avg # of iterations =  1.0

     negative rho (up, down):  0.127E-01 0.127E-01

     total cpu time spent up to now is      264.6 secs

     total energy              =    -366.78760438 Ry
     Harris-Foulkes estimate   =    -366.78760548 Ry
     estimated scf accuracy    <       0.00000339 Ry

     total magnetization       =     0.00 Bohr mag/cell
     absolute magnetization    =     0.00 Bohr mag/cell

     iteration # 11     ecut=    40.00 Ry     beta=0.70
     Davidson diagonalization with overlap
     ethr =  7.06E-09,  avg # of iterations =  1.0

     negative rho (up, down):  0.127E-01 0.127E-01

     total cpu time spent up to now is      287.1 secs

     End of self-consistent calculation

 ------ SPIN UP ------------


          k = 0.0000 0.0000 0.0000 (  1859 PWs)   bands (ev):

   -48.1929 -48.1787 -24.4992 -24.4992 -24.3423 -24.3423 -24.2970 -24.2669
    -9.3575  -8.2555  -7.4925  -7.4925   3.0495   3.4740   4.0326   4.8631
     4.8631   6.1980   6.1980   6.8245   8.0085   8.2831   8.2831   8.5936
    10.6428  11.0517  11.2066  11.2066  11.2147  12.8509  13.1579  15.4258
    15.4258  15.8609  16.5624  20.3501  20.3501  22.8183  24.2664  25.2941
    26.6349  27.5386  27.5386  28.1610  29.9050  31.2806  32.2799  32.2799
    33.4472  33.9784  33.9784  34.5039  34.5039  34.5273  35.3284  37.0339
    39.4509  40.1069  40.2228  40.6378  40.6378  41.6813  41.9143  41.9143
    44.2944  44.2944  44.4144  45.5741  47.7720

          k = 0.0000 0.0000 0.2609 (  1871 PWs)   bands (ev):

   -48.1821 -48.1698 -24.4702 -24.4702 -24.4099 -24.3851 -24.3374 -24.3374
    -9.0728  -8.0877  -7.6304  -7.6304   3.4427   3.7789   4.3459   4.6906
     4.6906   6.0697   6.6317   6.6317   7.0287   7.7901   7.7901   8.5045
    11.0018  11.1811  11.2231  11.5444  11.5444  12.9277  13.2422  15.0366
    15.0366  15.4798  17.3368  21.3438  21.3438  22.9076  23.8777  25.6818
    26.5196  26.7790  27.2190  27.2190  28.6721  31.6243  31.9846  31.9846
    32.8406  32.8406  34.2631  34.3202  35.2664  36.5964  36.7953  36.7953
    38.7068  38.7068  39.3742  40.5705  41.7453  43.1352  43.2325  43.2325
    43.7852  45.3423  45.3423  46.9510  46.9678

          k = 0.0000 0.0000 0.5219 (  1819 PWs)   bands (ev):

   -48.1596 -48.1525 -24.6282 -24.6153 -24.4061 -24.4061 -24.3331 -24.3331
    -8.4249  -7.9027  -7.9027  -7.8149   4.2923   4.3703   4.7850   4.7850
     4.9792   5.2382   5.6272   6.7466   6.7466   7.1398   7.1398   7.8413
    10.9540  11.4402  11.8356  12.1266  12.1266  12.3074  13.7860  14.4990
    14.7343  14.7343  19.1012  22.6137  23.0839  23.0839  23.2456  25.0856
    26.2986  26.2986  26.4276  26.5999  27.0567  30.2822  31.0266  31.0266
    33.3548  33.3548  33.7689  35.0519  35.3905  37.2863  37.2863  38.3641
    38.5908  39.4764  39.4764  41.8840  42.6415  43.3129  43.4482  43.4482
    45.3810  45.6386  46.3270  46.4681  46.4681

          k = 0.0000 0.0000-0.7828 (  1812 PWs)   bands (ev):

   -48.1461 -48.1461 -24.7307 -24.7307 -24.3572 -24.3572 -24.3474 -24.3474
    -8.0370  -8.0370  -7.8844  -7.8844   4.3846   4.3846   5.1247   5.1247
     5.1408   5.1408   6.0627   6.0627   6.5378   6.5378   7.2500   7.2500
    11.5230  11.5230  11.8060  11.8060  12.3843  12.3843  13.9382  13.9382
    14.7582  14.7582  20.9686  20.9686  23.9413  23.9413  23.9919  23.9919
    25.6568  25.6568  26.3072  26.3072  28.0536  28.0536  31.0163  31.0163
    32.8376  32.8376  35.7162  35.7162  36.3785  36.3785  37.9152  37.9152
    38.8134  38.8134  40.9734  40.9734  43.6340  43.6340  43.7781  43.7781
    44.8211  44.8211  46.3557  46.3557  46.5879

          k = 0.0000 0.1667 0.0000 (  1860 PWs)   bands (ev):

   -48.1920 -48.1797 -24.4925 -24.4919 -24.3505 -24.3499 -24.2949 -24.2689
    -9.2690  -8.2766  -7.5645  -7.5227   3.2079   3.5628   4.1983   4.8706
     4.8756   6.0690   6.1870   6.8483   7.7957   7.8577   8.0569   8.5191
    10.7938  11.2259  11.2944  11.3266  11.3877  13.0142  13.0769  15.3517
    15.3661  15.7784  16.8112  20.1949  20.5352  22.9074  24.0506  25.0698
    26.5224  27.5285  27.9862  28.4026  30.1418  31.0553  31.1787  31.7430
    32.3953  33.9332  34.1734  34.3399  34.6477  35.1513  37.1616  37.2536
    38.9264  39.9044  40.2641  40.6425  40.6948  41.6622  42.1698  43.0904
    43.8633  44.4681  45.1722  46.0641  47.1362

          k = 0.0000 0.1667 0.2609 (  1853 PWs)   bands (ev):

   -48.1813 -48.1706 -24.4663 -24.4636 -24.4075 -24.3916 -24.3426 -24.3398
    -8.9942  -8.0970  -7.7002  -7.6542   3.5779   3.8773   4.3626   4.6788
     4.8849   5.9662   6.3711   6.6927   6.8966   7.6734   7.6856   8.3925
    11.0496  11.3098  11.4100  11.5434  11.6653  12.8201  13.3915  14.7624
    14.9781  15.5852  17.6021  21.0347  21.4832  23.1268  23.8739  25.3335
    26.4234  26.6046  26.8904  27.9956  28.7777  30.8975  31.4693  31.8426
    32.7389  32.8515  34.5247  35.0195  35.2033  36.4169  36.4412  37.7830
    38.4638  38.9011  39.3566  41.0952  42.3052  42.5492  43.4061  43.6207
    44.4119  44.7751  45.1264  46.5423  46.9895

          k = 0.0000 0.1667 0.5219 (  1835 PWs)   bands (ev):

   -48.1591 -48.1530 -24.6298 -24.6184 -24.4018 -24.4007 -24.3363 -24.3354
    -8.3972  -7.9740  -7.8907  -7.7852   4.3238   4.4666   4.4932   4.7209
     5.1514   5.3887   5.5874   6.7360   6.8521   7.0139   7.0940   7.9256
    10.8521  11.5526  11.8616  11.8741  12.1986  12.4071  13.8038  14.0464
    14.7988  15.1730  19.2126  22.0910  22.8884  23.2206  23.9373  24.7523
    25.8016  25.9781  26.4154  26.8978  27.5586  29.6051  30.7015  31.4198
    33.3563  33.5510  34.2462  35.1143  35.7935  36.8872  37.3051  38.0110
    38.6700  39.4444  39.6542  41.9307  42.9327  43.2503  43.4511  43.8370
    44.9490  45.6527  46.0655  46.5084  46.7556

          k = 0.0000 0.1667-0.7828 (  1846 PWs)   bands (ev):

   -48.1461 -48.1461 -24.7327 -24.7327 -24.3571 -24.3571 -24.3456 -24.3456
    -8.1341  -8.1341  -7.7821  -7.7821   4.2433   4.2433   4.8349   4.8349
     5.5095   5.5095   6.0686   6.0686   6.8058   6.8058   7.1402   7.1402
    11.3054  11.3054  11.8156  11.8156  12.4476  12.4476  13.7936  13.7936
    15.0233  15.0233  20.8980  20.8980  23.4649  23.4649  24.3251  24.3251
    25.7183  25.7183  26.2721  26.2721  27.9035  27.9035  31.0017  31.0017
    33.2051  33.2051  35.5245  35.5245  36.3384  36.3384  38.4168  38.4168
    39.0206  39.0206  40.4323  40.4323  42.8207  42.8207  43.7641  43.7641
    45.4627  45.4627  46.2652  46.2652  47.6073

          k = 0.0000 0.3333 0.0000 (  1866 PWs)   bands (ev):

   -48.1894 -48.1822 -24.4756 -24.4742 -24.3698 -24.3684 -24.2894 -24.2744
    -9.0249  -8.4029  -7.6753  -7.5979   3.5453   3.7468   4.7359   4.8885
     4.8975   5.8344   6.0642   6.7831   6.9513   7.5199   7.8007   8.2374
    11.0893  11.3950  11.4883  11.5423  11.7824  12.6972  13.6922  15.2057
    15.2325  15.3102  17.6220  19.6173  21.1085  22.8573  23.8497  24.7421
    26.4172  27.6998  27.7657  29.0751  29.7027  30.7807  30.7863  31.0695
    32.6052  32.7874  34.3319  34.3474  35.0809  35.5874  36.9175  37.1281
    39.7597  39.7682  40.9026  41.2719  41.3432  42.0548  42.8062  44.2083
    44.5530  44.9267  45.5070  45.5987  46.5378

          k = 0.0000 0.3333 0.2609 (  1848 PWs)   bands (ev):

   -48.1790 -48.1728 -24.4551 -24.4475 -24.4068 -24.4053 -24.3528 -24.3465
    -8.7763  -8.2017  -7.8005  -7.7151   3.8879   4.0877   4.4963   4.6630
     5.2670   5.9075   5.9476   6.4972   6.5319   7.2588   7.7140   8.1736
    11.2431  11.5235  11.5837  11.7194  11.9208  12.5334  13.7782  14.3995
    14.8936  15.4292  18.3456  20.2749  21.9470  23.3691  23.9058  24.9113
    26.2376  26.3261  26.4648  28.3304  29.4964  29.9467  30.6149  32.0897
    32.8503  32.8785  34.4020  35.1306  35.3217  36.3175  37.1189  37.1619
    38.3872  39.0781  40.6541  41.7185  42.1771  42.8050  43.3187  44.3805
    44.8686  45.0057  45.9146  46.1420  46.8415

          k = 0.0000 0.3333 0.5219 (  1848 PWs)   bands (ev):

   -48.1578 -48.1543 -24.6320 -24.6251 -24.3915 -24.3890 -24.3439 -24.3417
    -8.3218  -8.0933  -7.8566  -7.7791   4.2723   4.4643   4.4753   4.7898
     5.0364   5.3573   5.9644   6.5919   6.6821   7.0088   7.2730   7.9529
    10.7771  11.4181  11.7982  11.9479  12.3318  12.4317  13.6657  13.7216
    15.0610  15.4623  19.6016  21.1720  23.0841  23.6201  24.1890  24.5513
    25.1815  25.2655  26.5128  27.1706  28.0841  28.6021  30.4635  31.8988
    33.9172  34.1547  34.6286  34.9845  36.4094  36.6512  36.8019  37.1183
    37.9175  40.0496  40.4789  41.1641  43.4958  43.5118  44.2630  44.6487
    44.8227  45.5055  46.0825  46.7024  46.7917

          k = 0.0000 0.3333-0.7828 (  1848 PWs)   bands (ev):

   -48.1461 -48.1461 -24.7366 -24.7366 -24.3570 -24.3570 -24.3418 -24.3418
    -8.2383  -8.2383  -7.6672  -7.6672   3.9325   3.9325   4.9020   4.9020
     5.5905   5.5905   6.1850   6.1850   6.8620   6.8620   7.3877   7.3877
    10.8639  10.8639  11.8332  11.8332  12.5358  12.5358  13.6145  13.6145
    15.4469  15.4469  20.7880  20.7880  22.9400  22.9400  24.5736  24.5736
    25.6105  25.6105  26.4631  26.4631  27.4384  27.4384  31.3190  31.3190
    33.8855  33.8855  35.4347  35.4347  36.1119  36.1119  37.9635  37.9635
    39.4847  39.4847  40.2294  40.2294  43.2004  43.2004  43.7987  43.7987
    44.7451  44.7451  47.1474  47.1474  48.2871

          k = 0.0000-0.5000 0.0000 (  1850 PWs)   bands (ev):

   -48.1858 -48.1858 -24.4634 -24.4634 -24.3814 -24.3814 -24.2819 -24.2819
    -8.6932  -8.6932  -7.6740  -7.6740   3.7851   3.7851   4.9029   4.9029
     5.6032   5.6032   5.8895   5.8895   7.1807   7.1807   7.9132   7.9132
    11.3285  11.3285  11.6177  11.6177  12.2509  12.2509  14.5408  14.5408
    15.1458  15.1458  18.6683  18.6683  22.0030  22.0030  24.3468  24.3468
    26.7779  26.7779  28.3786  28.3786  29.9908  29.9908  31.6937  31.6937
    32.2901  32.2901  34.1567  34.1567  35.8592  35.8592  36.1096  36.1096
    40.5248  40.5248  41.2588  41.2588  41.5851  41.5851  44.3724  44.3724
    45.4060  45.4060  45.6985  45.6986  46.5710

          k = 0.0000-0.5000 0.2609 (  1842 PWs)   bands (ev):

   -48.1759 -48.1759 -24.4411 -24.4411 -24.4125 -24.4125 -24.3539 -24.3539
    -8.4753  -8.4753  -7.7833  -7.7833   4.1275   4.1275   4.6579   4.6579
     5.5338   5.5338   6.1765   6.1765   6.6236   6.6236   7.9503   7.9503
    11.4367  11.4367  11.8090  11.8090  12.1944  12.1944  14.1272  14.1272
    15.0591  15.0591  19.3121  19.3121  22.7131  22.7131  24.4432  24.4432
    26.0493  26.0493  27.2179  27.2179  29.8000  29.8000  31.5355  31.5355
    32.8239  32.8239  34.6436  34.6436  35.5401  35.5401  37.4590  37.4590
    39.0593  39.0593  40.6130  40.6130  42.5837  42.5837  45.0091  45.0091
    45.5684  45.5684  46.0196  46.0198  47.0208

          k = 0.0000-0.5000 0.5219 (  1842 PWs)   bands (ev):

   -48.1560 -48.1560 -24.6307 -24.6307 -24.3834 -24.3834 -24.3477 -24.3477
    -8.2151  -8.2151  -7.8113  -7.8113   4.3041   4.3041   4.6546   4.6546
     5.2516   5.2516   6.1761   6.1761   6.9050   6.9050   7.6630   7.6630
    11.0005  11.0005  11.9524  11.9524  12.4079  12.4079  13.5835  13.5835
    15.3809  15.3809  20.2912  20.2912  23.5101  23.5101  24.3463  24.3463
    24.9204  24.9204  27.1051  27.1051  27.8893  27.8893  31.4622  31.4622
    34.4287  34.4287  34.8595  34.8595  36.0409  36.0409  37.0842  37.0842
    38.3390  38.3390  41.6293  41.6293  43.5629  43.5629  44.3798  44.3798
    45.8283  45.8283  46.3681  46.3681  46.9852

          k = 0.0000-0.5000-0.7828 (  1840 PWs)   bands (ev):

   -48.1461 -48.1461 -24.7386 -24.7386 -24.3570 -24.3570 -24.3400 -24.3400
    -8.2770  -8.2770  -7.6230  -7.6230   3.7991   3.7991   4.9930   4.9930
     5.5434   5.5434   6.3582   6.3582   6.6337   6.6337   7.7030   7.7030
    10.6145  10.6145  11.8411  11.8411  12.5704  12.5704  13.5476  13.5476
    15.6390  15.6390  20.7511  20.7511  22.7009  22.7009  24.5825  24.5825
    25.7076  25.7076  26.6966  26.6966  26.9424  26.9424  31.6574  31.6574
    34.2109  34.2109  35.8017  35.8017  36.0064  36.0064  36.6339  36.6339
    40.0944  40.0944  40.3977  40.3977  43.7928  43.7928  44.0037  44.0037
    44.1454  44.1454  47.6214  47.6214  47.9370

          k = 0.1667 0.1667 0.0000 (  1861 PWs)   bands (ev):

   -48.1911 -48.1805 -24.5017 -24.4732 -24.3703 -24.3408 -24.2932 -24.2707
    -9.1937  -8.3073  -7.6323  -7.5223   3.2233   3.7175   4.3435   4.8483
     4.9013   5.9390   6.2584   6.8824   7.4409   7.7707   7.9199   8.4931
    10.7386  11.2099  11.3520  11.5167  11.5499  12.9439  13.2203  15.2196
    15.4231  15.6294  17.1227  20.3141  20.4556  22.9900  23.8036  24.8089
    26.4775  27.4340  28.5375  28.6370  30.3366  30.8514  31.1160  31.3534
    31.4706  33.2028  33.6203  34.5850  35.4722  35.9519  37.7377  37.7484
    38.2878  39.6670  40.1437  41.0773  41.0792  41.3759  42.5609  43.5136
    43.6674  45.0208  45.1850  46.1732  46.7823

          k = 0.1667 0.1667 0.2609 (  1861 PWs)   bands (ev):

   -48.1805 -48.1713 -24.4724 -24.4500 -24.4095 -24.3947 -24.3498 -24.3362
    -8.9264  -8.1177  -7.7596  -7.6576   3.5687   4.0498   4.3387   4.7413
     4.9955   5.8285   6.4831   6.6306   6.6536   7.6367   7.6957   8.2650
    11.0902  11.1549  11.5561  11.7230  11.7267  12.7339  13.5041  14.5665
    15.0396  15.5377  17.8717  21.0279  21.3441  23.3089  23.8543  24.8230
    26.4010  26.4335  27.6000  27.7620  28.8726  30.5741  30.8962  31.9437
    32.6920  32.9334  34.4614  34.5420  35.8752  36.5833  37.0325  37.6178
    38.0993  39.0925  40.2928  40.5587  42.5036  42.8825  43.2122  43.5550
    44.4541  44.9709  46.0166  46.3942  46.4720

          k = 0.1667 0.1667 0.5219 (  1840 PWs)   bands (ev):

   -48.1587 -48.1534 -24.6306 -24.6196 -24.4076 -24.3893 -24.3434 -24.3324
    -8.3695  -7.9781  -7.9253  -7.7746   4.2977   4.4544   4.4684   4.6111
     5.2075   5.4226   5.7565   6.6369   6.7241   7.1367   7.1420   7.9839
    10.8022  11.5760  11.8932  11.9047  12.0249  12.4902  13.6257  14.1806
    14.7299  15.3247  19.3183  22.0710  22.2660  23.6269  23.9962  24.8100
    25.0755  26.1754  26.7308  26.8618  27.5521  29.4708  30.3907  31.6402
    33.3695  33.4145  34.5389  35.5979  35.6322  36.9868  37.2027  37.9172
    38.9680  39.3058  40.1140  41.9155  42.5126  42.9602  43.6820  44.5066
    44.6751  45.7734  45.9518  46.5778  46.7210

          k = 0.1667 0.1667-0.7828 (  1856 PWs)   bands (ev):

   -48.1461 -48.1461 -24.7359 -24.7313 -24.3576 -24.3567 -24.3478 -24.3417
    -8.2369  -8.0576  -7.8588  -7.6710   3.9825   4.4929   4.7363   4.7625
     5.0169   6.0581   6.0592   6.2228   6.7780   6.8553   7.1524   7.2883
    11.0091  11.4332  11.8180  11.8283  12.1815  12.6442  13.5206  14.1251
    14.7546  15.3906  20.6774  21.0442  22.7469  23.3978  24.3975  25.0019
    25.0780  25.8427  26.3476  26.6209  27.1292  28.6105  30.2730  31.5616
    33.2706  33.4106  34.5606  36.2024  36.4930  36.8886  37.9550  38.7333
    39.0797  39.8667  40.5249  40.7483  41.0307  43.2420  43.7382  43.7496
    44.7566  45.0591  46.3793  46.9147  47.6654

          k = 0.1667 0.3333 0.0000 (  1849 PWs)   bands (ev):

   -48.1889 -48.1827 -24.4962 -24.4636 -24.3812 -24.3476 -24.2884 -24.2754
    -8.9864  -8.4446  -7.6914  -7.5783   3.3763   3.8323   4.8120   4.8500
     4.9031   5.8905   6.1608   6.8854   7.0098   7.5365   7.6184   8.1957
    10.9106  11.3131  11.3850  11.6211  11.9082  12.6856  13.7365  15.1447
    15.1545  15.3558  17.9231  19.7987  21.0177  22.8767  23.5655  24.4100
    26.4334  27.2663  28.7300  29.2849  29.9139  30.8178  30.8325  30.8796
    31.5380  32.6494  33.2933  34.9133  35.3963  36.5417  36.8582  37.7746
    39.5929  39.7347  40.2851  40.6075  41.8570  42.4225  43.4327  43.5445
    44.3294  44.8579  45.5533  45.8418  45.9145

          k = 0.1667 0.3333 0.2609 (  1848 PWs)   bands (ev):

   -48.1786 -48.1732 -24.4686 -24.4401 -24.4165 -24.3961 -24.3541 -24.3392
    -8.7394  -8.2401  -7.8083  -7.7046   3.7056   4.1809   4.3913   4.6716
     5.3792   5.8377   6.2357   6.3831   6.7534   7.3302   7.6104   8.0108
    11.2317  11.3140  11.5654  11.8364  11.9316  12.4941  13.8373  14.3977
    14.9725  15.3300  18.5734  20.3754  21.7640  23.4029  23.8359  24.3365
    26.1855  26.3029  27.2147  28.2431  29.2581  29.7382  30.5726  32.2161
    32.7591  32.9072  34.3791  34.6902  35.6993  36.4002  37.2816  37.8635
    38.2401  39.4073  40.3752  41.4976  42.0651  43.0457  43.3535  44.5263
    44.5956  45.6006  46.0301  46.1089  46.7480

          k = 0.1667 0.3333 0.5219 (  1847 PWs)   bands (ev):

   -48.1576 -48.1545 -24.6311 -24.6236 -24.4037 -24.3834 -24.3477 -24.3347
    -8.2938  -8.0698  -7.8966  -7.7883   4.2217   4.3332   4.4133   4.8145
     4.9628   5.5167   6.0984   6.4749   6.7806   7.0401   7.3571   7.9755
    10.8163  11.4941  11.7137  11.9518  12.1549  12.4540  13.5417  14.0527
    14.9300  15.4314  19.6765  21.1691  22.5370  23.7878  23.8383  24.4458
    25.1853  26.0827  26.1851  27.2416  27.5750  29.1784  30.2865  32.1759
    33.3750  33.8857  34.6258  35.1991  36.3223  36.4377  37.1709  37.9171
    38.4654  40.4850  40.7504  41.2950  42.5835  43.3382  43.6817  44.8913
    45.0235  45.4048  45.8496  46.4480  47.0314

          k = 0.1667 0.3333-0.7828 (  1846 PWs)   bands (ev):

   -48.1461 -48.1461 -24.7378 -24.7332 -24.3577 -24.3569 -24.3461 -24.3401
    -8.2790  -8.1490  -7.7594  -7.6209   3.8090   4.1261   4.7869   4.9513
     5.0022   5.9026   6.0778   6.2544   6.8112   7.2267   7.3246   7.6133
    10.7264  11.1084  11.8339  11.8421  12.2415  12.6306  13.4878  13.9540
    15.0823  15.5973  20.5228  21.0620  22.0947  23.0516  24.5497  24.6610
    25.4835  25.8896  26.2583  26.5205  27.1126  28.5446  30.4400  32.0388
    33.5594  33.7482  34.0745  36.1176  36.4123  36.7964  38.1662  39.0894
    39.2940  40.3058  40.4176  40.6231  42.2164  42.7657  43.2721  43.3631
    44.7471  45.6135  45.7218  46.9085  47.6374

          k = 0.1667-0.5000 0.0000 (  1856 PWs)   bands (ev):

   -48.1858 -48.1858 -24.4784 -24.4784 -24.3665 -24.3665 -24.2819 -24.2819
    -8.7041  -8.7041  -7.6573  -7.6573   3.6468   3.6468   4.8767   4.8767
     5.4979   5.4979   6.3317   6.3317   7.2466   7.2466   7.7667   7.7667
    11.2055  11.2055  11.5171  11.5171  12.3154  12.3154  14.4591  14.4591
    15.2172  15.2172  18.9037  18.9037  21.9489  21.9489  24.0078  24.0078
    26.7536  26.7536  28.8566  28.8566  30.1426  30.1426  31.5435  31.5435
    31.6580  31.6580  34.1824  34.1824  35.6646  35.6646  37.1173  37.1173
    40.2975  40.2975  40.9630  40.9630  41.4115  41.4115  44.5445  44.5445
    44.8180  44.8180  45.7377  45.7378  46.6081

          k = 0.1667-0.5000 0.2609 (  1856 PWs)   bands (ev):

   -48.1759 -48.1759 -24.4546 -24.4546 -24.4051 -24.4051 -24.3481 -24.3481
    -8.4825  -8.4825  -7.7715  -7.7715   3.9826   3.9826   4.5304   4.5304
     5.7292   5.7292   6.3946   6.3946   6.7270   6.7270   7.7759   7.7759
    11.4097  11.4097  11.6809  11.6809  12.1899  12.1899  14.2144  14.2144
    15.0357  15.0357  19.4697  19.4697  22.5886  22.5886  24.1452  24.1452
    26.1501  26.1501  27.5111  27.5111  29.4221  29.4221  31.6786  31.6786
    32.7733  32.7733  34.7639  34.7639  35.5228  35.5228  37.6362  37.6362
    39.2543  39.2543  40.6410  40.6410  42.6481  42.6481  44.2518  44.2518
    45.4905  45.4905  46.5376  46.5381  46.8852

          k = 0.1667-0.5000 0.5219 (  1852 PWs)   bands (ev):

   -48.1560 -48.1560 -24.6284 -24.6284 -24.3923 -24.3923 -24.3416 -24.3416
    -8.1873  -8.1873  -7.8372  -7.8372   4.2193   4.2193   4.5786   4.5786
     5.2692   5.2692   6.3492   6.3492   6.9125   6.9125   7.6917   7.6917
    11.0821  11.0821  11.8720  11.8720  12.3127  12.3127  13.7394  13.7394
    15.2694  15.2694  20.3151  20.3151  23.1011  23.1011  24.1209  24.1209
    25.6033  25.6033  26.5870  26.5870  28.2339  28.2339  31.5828  31.5828
    34.0699  34.0699  34.4934  34.4934  36.4420  36.4420  37.3432  37.3432
    39.2586  39.2586  41.5381  41.5381  43.3044  43.3044  44.2889  44.2889
    45.1094  45.1094  46.3459  46.3460  47.2869

          k = 0.1667-0.5000-0.7828 (  1844 PWs)   bands (ev):

   -48.1460 -48.1460 -24.7365 -24.7365 -24.3573 -24.3573 -24.3423 -24.3423
    -8.2454  -8.2454  -7.6548  -7.6548   3.8380   3.8380   4.8817   4.8817
     5.4558   5.4558   6.1390   6.1390   7.0256   7.0256   7.7511   7.7511
    10.7221  10.7221  11.8452  11.8452  12.4631  12.4631  13.6577  13.6577
    15.4879  15.4879  20.6997  20.6997  22.3797  22.3797  24.6171  24.6171
    25.8314  25.8314  26.1461  26.1461  27.7637  27.7637  31.5571  31.5571
    33.8456  33.8456  34.9519  34.9519  36.2781  36.2781  38.5697  38.5697
    40.1799  40.1799  40.6174  40.6174  42.6225  42.6225  44.0862  44.0862
    44.4745  44.4745  46.4123  46.4123  47.7979

          k = 0.3333 0.3333 0.0000 (  1852 PWs)   bands (ev):

   -48.1875 -48.1840 -24.5066 -24.4803 -24.3652 -24.3378 -24.2856 -24.2781
    -8.8787  -8.5637  -7.6770  -7.5804   3.2806   3.6680   4.8186   4.8687
     5.1442   5.9815   6.4386   7.0021   7.1748   7.2195   7.5165   8.0820
    10.7312  11.2125  11.2172  11.5200  12.1744  12.6073  13.9475  14.7700
    15.2157  15.4180  18.6263  19.9890  21.0028  22.5832  23.3097  23.9172
    26.4737  27.0288  29.6003  29.8459  30.0368  30.3150  30.3927  30.8233
    31.1345  32.1794  33.4706  34.8213  35.8483  36.0827  37.6753  38.5180
    39.4131  39.8497  39.9126  40.3089  41.4057  41.9131  43.5500  44.8445
    44.8589  45.1789  45.5502  45.5652  45.9117

          k = 0.3333 0.3333 0.2609 (  1855 PWs)   bands (ev):

   -48.1774 -48.1743 -24.4768 -24.4559 -24.4085 -24.3937 -24.3475 -24.3336
    -8.6379  -8.3494  -7.7919  -7.7108   3.6029   4.0056   4.3378   4.5206
     5.7700   6.0473   6.5345   6.6363   6.7247   7.2936   7.4648   7.6559
    11.1131  11.3271  11.5129  11.6875  12.0334  12.3696  14.0554  14.4446
    15.0395  15.1164  19.1396  20.3951  21.6211  23.0111  23.8242  24.0097
    26.0787  26.1111  27.7767  28.4243  28.4752  29.7221  30.6506  32.4236
    32.5303  32.9312  34.6189  34.7988  36.1400  36.1407  37.0518  38.0230
    39.1986  39.6512  40.0692  40.6757  42.7099  43.3145  43.3270  44.1853
    45.2434  45.4510  46.2192  46.4209  46.7254

          k = 0.3333 0.3333 0.5219 (  1858 PWs)   bands (ev):

   -48.1569 -48.1551 -24.6278 -24.6219 -24.4105 -24.3932 -24.3410 -24.3311
    -8.2176  -8.0244  -7.9697  -7.8323   4.1543   4.2026   4.2657   4.5899
     5.1592   5.5571   6.3840   6.4588   6.8695   7.1922   7.4410   7.9348
    10.9877  11.6182  11.6666  11.8137  11.9193  12.3219  13.7194  14.3637
    14.7208  15.2774  19.9148  20.8926  22.2649  23.3755  23.6860  24.1140
    25.7493  25.8699  26.3810  26.8235  27.8282  29.0865  30.8573  32.6538
    33.1070  33.6252  34.3794  34.6612  36.5651  36.9229  37.0310  38.4094
    40.2595  40.7717  41.2169  41.6458  42.1077  42.9304  43.5465  43.8234
    45.1893  45.3302  45.7282  46.6411  46.8381

          k = 0.3333 0.3333-0.7828 (  1864 PWs)   bands (ev):

   -48.1460 -48.1460 -24.7356 -24.7309 -24.3582 -24.3574 -24.3487 -24.3426
    -8.2511  -8.0982  -7.8078  -7.6463   3.7992   4.3159   4.4130   4.6883
     5.1008   5.7070   6.0699   6.0734   7.2714   7.4085   7.5227   7.8717
    10.7484  11.2649  11.8443  11.8513  11.9815  12.4913  13.6204  14.2954
    14.7438  15.4694  20.3156  21.0348  21.6250  23.1602  23.5581  24.5850
    25.5885  25.5974  26.4100  27.1913  27.4558  28.9594  30.3318  32.6553
    33.0789  33.3351  33.6616  35.9487  36.5537  36.9334  39.2993  39.9962
    40.4862  40.8619  41.0476  41.5780  41.6340  42.4253  42.7608  42.7925
    44.0089  45.2427  45.2993  46.2962  47.2165

          k = 0.3333-0.5000 0.0000 (  1854 PWs)   bands (ev):

   -48.1858 -48.1858 -24.5003 -24.5003 -24.3450 -24.3450 -24.2818 -24.2818
    -8.7250  -8.7250  -7.6247  -7.6247   3.3997   3.3997   4.8273   4.8273
     5.6691   5.6691   6.7056   6.7056   7.3802   7.3802   7.6315   7.6315
    10.9038  10.9038  11.3193  11.3193  12.4292  12.4292  14.3243  14.3243
    15.3518  15.3518  19.4264  19.4264  21.7303  21.7303  23.5514  23.5514
    26.7197  26.7197  29.5639  29.5639  30.3765  30.3765  30.4995  30.4995
    31.5660  31.5660  34.9133  34.9133  35.2442  35.2442  37.9974  37.9974
    40.1419  40.1419  40.3343  40.3343  40.8295  40.8295  44.6954  44.6954
    45.1325  45.1325  45.5763  45.5763  47.4323

          k = 0.3333-0.5000 0.2609 (  1856 PWs)   bands (ev):

   -48.1759 -48.1759 -24.4721 -24.4721 -24.3989 -24.3989 -24.3373 -24.3373
    -8.4962  -8.4962  -7.7482  -7.7482   3.7235   3.7235   4.3901   4.3901
     6.1524   6.1524   6.6089   6.6089   7.0439   7.0439   7.3972   7.3972
    11.2698  11.2698  11.4755  11.4755  12.1959  12.1959  14.3403  14.3403
    15.0236  15.0236  19.8373  19.8373  22.2032  22.2032  23.9466  23.9466
    26.0278  26.0278  27.8217  27.8217  29.1606  29.1606  31.6322  31.6322
    32.7672  32.7672  35.1916  35.1916  35.8886  35.8886  37.2984  37.2984
    39.5108  39.5108  40.7123  40.7123  42.5894  42.5894  43.7748  43.7748
    45.7418  45.7418  46.5958  46.5959  47.1634

          k = 0.3333-0.5000 0.5219 (  1854 PWs)   bands (ev):

   -48.1560 -48.1560 -24.6237 -24.6237 -24.4060 -24.4060 -24.3335 -24.3335
    -8.1125  -8.1125  -7.9084  -7.9084   4.1245   4.1245   4.3518   4.3518
     5.3986   5.3986   6.4896   6.4896   7.0883   7.0883   7.7011   7.7011
    11.3158  11.3158  11.7263  11.7263  12.0582  12.0582  14.0940  14.0940
    14.9822  14.9822  20.3419  20.3419  22.7105  22.7105  23.8168  23.8168
    25.9236  25.9236  26.4222  26.4222  28.4400  28.4400  32.1145  32.1145
    33.5205  33.5205  34.1091  34.1091  36.6813  36.6813  38.0584  38.0584
    40.5687  40.5687  41.7782  41.7782  42.5586  42.5586  43.6721  43.6721
    45.3807  45.3807  45.9698  45.9698  47.3171

          k = 0.3333-0.5000-0.7828 (  1856 PWs)   bands (ev):

   -48.1460 -48.1460 -24.7322 -24.7322 -24.3581 -24.3581 -24.3469 -24.3469
    -8.1690  -8.1690  -7.7315  -7.7315   3.9685   3.9685   4.5730   4.5730
     5.3162   5.3162   6.0795   6.0795   7.4062   7.4062   7.8724   7.8724
    10.9913  10.9913  11.8533  11.8533  12.1880  12.1880  13.9738  13.9738
    15.0943  15.0943  20.4551  20.4551  22.3532  22.3532  23.9035  23.9035
    25.5277  25.5277  26.9922  26.9922  28.1888  28.1888  31.6635  31.6635
    33.1575  33.1575  34.6729  34.6729  36.8804  36.8804  39.8447  39.8447
    40.8094  40.8094  41.6168  41.6168  42.1310  42.1310  43.5042  43.5042
    44.0983  44.0983  45.6192  45.6192  47.3818

          k =-0.5000-0.5000 0.0000 (  1832 PWs)   bands (ev):

   -48.1857 -48.1857 -24.5091 -24.5091 -24.3363 -24.3363 -24.2818 -24.2818
    -8.7351  -8.7351  -7.6087  -7.6087   3.2891   3.2891   4.8039   4.8039
     5.8792   5.8792   6.5945   6.5945   7.4485   7.4485   7.7654   7.7654
    10.7128  10.7128  11.2212  11.2212  12.4786  12.4786  14.2705  14.2705
    15.4155  15.4155  19.7424  19.7424  21.5371  21.5371  23.3964  23.3964
    26.7369  26.7369  29.5697  29.5697  30.1119  30.1119  30.7257  30.7257
    31.4941  31.4941  35.0114  35.0114  35.8706  35.8706  37.3525  37.3525
    40.0350  40.0350  40.0559  40.0559  41.1101  41.1101  44.7777  44.7777
    45.2622  45.2622  45.5982  45.5982  47.9123

          k =-0.5000-0.5000 0.2609 (  1860 PWs)   bands (ev):

   -48.1758 -48.1758 -24.4791 -24.4791 -24.3972 -24.3972 -24.3322 -24.3322
    -8.5029  -8.5029  -7.7367  -7.7367   3.6094   3.6094   4.3416   4.3416
     6.6227   6.6227   6.6393   6.6393   6.7876   6.7876   7.4257   7.4257
    11.1323  11.1323  11.4231  11.4231  12.1991  12.1991  14.3797  14.3797
    15.0374  15.0374  20.0662  20.0662  21.9536  21.9536  23.9279  23.9279
    25.9621  25.9621  27.6291  27.6291  29.4293  29.4293  31.4408  31.4408
    32.7652  32.7652  35.7602  35.7602  36.4853  36.4853  36.5541  36.5541
    38.9817  38.9817  41.3554  41.3554  42.4431  42.4431  43.4599  43.4600
    46.5393  46.5393  46.6145  46.6146  46.7506

          k =-0.5000-0.5000 0.5219 (  1864 PWs)   bands (ev):

   -48.1560 -48.1560 -24.6212 -24.6212 -24.4120 -24.4120 -24.3305 -24.3305
    -8.0275  -8.0275  -7.9915  -7.9915   4.1180   4.1180   4.2158   4.2158
     5.4659   5.4659   6.5057   6.5057   7.2464   7.2464   7.6696   7.6696
    11.5648  11.5648  11.6592  11.6592  11.8007  11.8007  14.3864  14.3864
    14.7153  14.7153  20.3395  20.3395  22.6878  22.6878  23.5462  23.5462
    25.8677  25.8677  26.5200  26.5200  28.5061  28.5061  32.7487  32.7487
    33.1305  33.1305  33.8345  33.8345  36.7463  36.7463  38.4967  38.4967
    40.9580  40.9580  41.3684  41.3684  42.4697  42.4697  44.2297  44.2297
    45.3751  45.3751  46.2982  46.2984  46.5590

          k =-0.5000-0.5000-0.7828 (  1872 PWs)   bands (ev):

   -48.1460 -48.1460 -24.7300 -24.7300 -24.3585 -24.3585 -24.3492 -24.3492
    -8.1182  -8.1182  -7.7824  -7.7824   4.1722   4.1722   4.2719   4.2719
     5.2713   5.2713   6.0802   6.0802   7.5336   7.5336   7.9507   7.9507
    11.1885  11.1885  11.8573  11.8573  11.9856  11.9856  14.2947  14.2947
    14.7356  14.7356  20.2890  20.2890  22.8234  22.8234  23.1018  23.1018
    25.5207  25.5207  27.4259  27.4259  28.1598  28.1598  32.2631  32.2631
    32.4202  32.4202  34.7650  34.7650  37.1044  37.1044  39.3918  39.3918
    41.7819  41.7819  41.8082  41.8082  42.7937  42.7937  43.2712  43.2712
    43.9824  43.9824  46.1168  46.1168  46.4935

 ------ SPIN DOWN ----------


          k = 0.0000 0.0000 0.0000 (  1859 PWs)   bands (ev):

   -48.1929 -48.1787 -24.4992 -24.4992 -24.3423 -24.3423 -24.2970 -24.2669
    -9.3575  -8.2555  -7.4925  -7.4925   3.0495   3.4740   4.0327   4.8632
     4.8632   6.1980   6.1980   6.8245   8.0085   8.2831   8.2831   8.5936
    10.6428  11.0517  11.2066  11.2066  11.2146  12.8509  13.1578  15.4258
    15.4258  15.8609  16.5625  20.3502  20.3502  22.8184  24.2665  25.2941
    26.6349  27.5386  27.5386  28.1611  29.9050  31.2807  32.2800  32.2800
    33.4473  33.9785  33.9785  34.5040  34.5040  34.5275  35.3285  37.0340
    39.4510  40.1069  40.2229  40.6379  40.6379  41.6814  41.9143  41.9143
    44.2945  44.2945  44.4145  45.5741  47.7720

          k = 0.0000 0.0000 0.2609 (  1871 PWs)   bands (ev):

   -48.1821 -48.1698 -24.4702 -24.4702 -24.4099 -24.3852 -24.3374 -24.3374
    -9.0728  -8.0876  -7.6304  -7.6304   3.4428   3.7790   4.3459   4.6906
     4.6906   6.0698   6.6317   6.6317   7.0287   7.7901   7.7901   8.5045
    11.0018  11.1810  11.2230  11.5443  11.5443  12.9277  13.2422  15.0367
    15.0367  15.4798  17.3369  21.3439  21.3439  22.9077  23.8778  25.6819
    26.5196  26.7792  27.2191  27.2191  28.6721  31.6244  31.9847  31.9847
    32.8407  32.8407  34.2632  34.3203  35.2665  36.5965  36.7954  36.7954
    38.7069  38.7069  39.3743  40.5706  41.7455  43.1352  43.2326  43.2326
    43.7853  45.3424  45.3424  46.9510  46.9679

          k = 0.0000 0.0000 0.5219 (  1819 PWs)   bands (ev):

   -48.1596 -48.1525 -24.6282 -24.6153 -24.4061 -24.4061 -24.3331 -24.3331
    -8.4249  -7.9027  -7.9027  -7.8149   4.2924   4.3703   4.7851   4.7851
     4.9792   5.2382   5.6273   6.7467   6.7467   7.1398   7.1398   7.8414
    10.9540  11.4401  11.8356  12.1265  12.1265  12.3074  13.7860  14.4991
    14.7343  14.7343  19.1013  22.6139  23.0840  23.0840  23.2457  25.0857
    26.2987  26.2987  26.4276  26.6000  27.0568  30.2822  31.0267  31.0267
    33.3549  33.3549  33.7690  35.0520  35.3905  37.2863  37.2863  38.3642
    38.5909  39.4765  39.4765  41.8842  42.6415  43.3130  43.4483  43.4483
    45.3811  45.6387  46.3271  46.4682  46.4682

          k = 0.0000 0.0000-0.7828 (  1812 PWs)   bands (ev):

   -48.1461 -48.1461 -24.7307 -24.7307 -24.3572 -24.3572 -24.3474 -24.3474
    -8.0370  -8.0370  -7.8844  -7.8844   4.3846   4.3846   5.1248   5.1248
     5.1408   5.1408   6.0628   6.0628   6.5378   6.5378   7.2500   7.2500
    11.5229  11.5229  11.8059  11.8059  12.3842  12.3842  13.9382  13.9382
    14.7583  14.7583  20.9687  20.9687  23.9414  23.9414  23.9920  23.9920
    25.6569  25.6569  26.3073  26.3073  28.0537  28.0537  31.0163  31.0163
    32.8377  32.8377  35.7163  35.7163  36.3786  36.3786  37.9153  37.9153
    38.8135  38.8135  40.9734  40.9734  43.6341  43.6341  43.7782  43.7782
    44.8213  44.8213  46.3558  46.3558  46.5879

          k = 0.0000 0.1667 0.0000 (  1860 PWs)   bands (ev):

   -48.1919 -48.1796 -24.4925 -24.4919 -24.3505 -24.3499 -24.2949 -24.2689
    -9.2690  -8.2766  -7.5645  -7.5226   3.2079   3.5629   4.1984   4.8706
     4.8757   6.0691   6.1871   6.8483   7.7957   7.8577   8.0570   8.5191
    10.7937  11.2259  11.2944  11.3266  11.3877  13.0142  13.0769  15.3517
    15.3661  15.7784  16.8113  20.1950  20.5353  22.9075  24.0507  25.0699
    26.5224  27.5285  27.9862  28.4027  30.1418  31.0554  31.1788  31.7431
    32.3953  33.9333  34.1735  34.3400  34.6478  35.1514  37.1617  37.2538
    38.9265  39.9045  40.2642  40.6425  40.6949  41.6623  42.1698  43.0904
    43.8634  44.4682  45.1724  46.0642  47.1362

          k = 0.0000 0.1667 0.2609 (  1853 PWs)   bands (ev):

   -48.1812 -48.1706 -24.4663 -24.4636 -24.4075 -24.3916 -24.3426 -24.3398
    -8.9942  -8.0970  -7.7002  -7.6542   3.5780   3.8773   4.3626   4.6789
     4.8850   5.9662   6.3711   6.6928   6.8967   7.6734   7.6856   8.3925
    11.0496  11.3097  11.4099  11.5434  11.6653  12.8201  13.3915  14.7624
    14.9781  15.5852  17.6022  21.0348  21.4833  23.1269  23.8741  25.3335
    26.4234  26.6048  26.8904  27.9956  28.7778  30.8976  31.4694  31.8427
    32.7390  32.8516  34.5248  35.0196  35.2034  36.4170  36.4413  37.7831
    38.4639  38.9012  39.3566  41.0953  42.3053  42.5493  43.4062  43.6207
    44.4120  44.7751  45.1265  46.5423  46.9895

          k = 0.0000 0.1667 0.5219 (  1835 PWs)   bands (ev):

   -48.1591 -48.1529 -24.6298 -24.6184 -24.4018 -24.4007 -24.3363 -24.3354
    -8.3972  -7.9739  -7.8907  -7.7851   4.3239   4.4666   4.4932   4.7209
     5.1515   5.3887   5.5874   6.7361   6.8521   7.0139   7.0940   7.9257
    10.8521  11.5525  11.8615  11.8740  12.1986  12.4070  13.8038  14.0464
    14.7989  15.1730  19.2127  22.0911  22.8885  23.2207  23.9374  24.7524
    25.8016  25.9781  26.4154  26.8979  27.5586  29.6052  30.7015  31.4199
    33.3563  33.5511  34.2462  35.1144  35.7936  36.8872  37.3051  38.0111
    38.6701  39.4445  39.6543  41.9308  42.9327  43.2504  43.4512  43.8371
    44.9490  45.6528  46.0655  46.5085  46.7556

          k = 0.0000 0.1667-0.7828 (  1846 PWs)   bands (ev):

   -48.1461 -48.1461 -24.7327 -24.7327 -24.3571 -24.3571 -24.3456 -24.3456
    -8.1341  -8.1341  -7.7821  -7.7821   4.2434   4.2434   4.8350   4.8350
     5.5096   5.5096   6.0686   6.0686   6.8059   6.8059   7.1402   7.1402
    11.3053  11.3053  11.8156  11.8156  12.4476  12.4476  13.7937  13.7937
    15.0233  15.0233  20.8981  20.8981  23.4650  23.4650  24.3252  24.3252
    25.7184  25.7184  26.2722  26.2722  27.9035  27.9035  31.0018  31.0018
    33.2052  33.2052  35.5245  35.5245  36.3385  36.3385  38.4168  38.4168
    39.0207  39.0207  40.4323  40.4323  42.8208  42.8208  43.7642  43.7642
    45.4628  45.4628  46.2653  46.2653  47.6074

          k = 0.0000 0.3333 0.0000 (  1866 PWs)   bands (ev):

   -48.1893 -48.1822 -24.4756 -24.4742 -24.3698 -24.3684 -24.2894 -24.2744
    -9.0249  -8.4029  -7.6753  -7.5979   3.5453   3.7469   4.7360   4.8885
     4.8976   5.8344   6.0642   6.7832   6.9513   7.5199   7.8007   8.2374
    11.0893  11.3949  11.4883  11.5423  11.7824  12.6972  13.6922  15.2057
    15.2325  15.3102  17.6221  19.6174  21.1086  22.8574  23.8498  24.7422
    26.4172  27.6999  27.7658  29.0753  29.7028  30.7808  30.7863  31.0696
    32.6053  32.7875  34.3320  34.3475  35.0810  35.5875  36.9176  37.1282
    39.7598  39.7683  40.9027  41.2719  41.3432  42.0549  42.8063  44.2084
    44.5530  44.9268  45.5071  45.5988  46.5990

          k = 0.0000 0.3333 0.2609 (  1848 PWs)   bands (ev):

   -48.1790 -48.1728 -24.4551 -24.4475 -24.4068 -24.4053 -24.3528 -24.3465
    -8.7763  -8.2017  -7.8005  -7.7151   3.8879   4.0877   4.4963   4.6630
     5.2670   5.9075   5.9476   6.4973   6.5319   7.2589   7.7140   8.1736
    11.2431  11.5235  11.5836  11.7193  11.9208  12.5333  13.7782  14.3995
    14.8937  15.4292  18.3457  20.2750  21.9471  23.3692  23.9059  24.9113
    26.2377  26.3261  26.4648  28.3305  29.4964  29.9468  30.6150  32.0897
    32.8504  32.8786  34.4021  35.1307  35.3218  36.3176  37.1189  37.1620
    38.3873  39.0782  40.6542  41.7186  42.1772  42.8051  43.3188  44.3805
    44.8687  45.0058  45.9146  46.1421  46.8415

          k = 0.0000 0.3333 0.5219 (  1848 PWs)   bands (ev):

   -48.1578 -48.1542 -24.6320 -24.6252 -24.3915 -24.3890 -24.3439 -24.3417
    -8.3217  -8.0933  -7.8566  -7.7791   4.2723   4.4643   4.4753   4.7899
     5.0365   5.3574   5.9644   6.5919   6.6822   7.0088   7.2730   7.9529
    10.7770  11.4181  11.7981  11.9478  12.3318  12.4317  13.6658  13.7216
    15.0610  15.4623  19.6017  21.1721  23.0842  23.6201  24.1892  24.5514
    25.1816  25.2655  26.5128  27.1707  28.0841  28.6021  30.4635  31.8988
    33.9173  34.1548  34.6287  34.9846  36.4095  36.6513  36.8020  37.1184
    37.9176  40.0497  40.4790  41.1641  43.4958  43.5118  44.2631  44.6488
    44.8228  45.5056  46.0826  46.7025  46.7918

          k = 0.0000 0.3333-0.7828 (  1848 PWs)   bands (ev):

   -48.1460 -48.1460 -24.7366 -24.7366 -24.3570 -24.3570 -24.3418 -24.3418
    -8.2382  -8.2382  -7.6672  -7.6672   3.9326   3.9326   4.9020   4.9020
     5.5905   5.5905   6.1851   6.1851   6.8620   6.8620   7.3877   7.3877
    10.8638  10.8638  11.8332  11.8332  12.5358  12.5358  13.6145  13.6145
    15.4469  15.4469  20.7881  20.7881  22.9401  22.9401  24.5737  24.5737
    25.6106  25.6106  26.4632  26.4632  27.4384  27.4384  31.3191  31.3191
    33.8856  33.8856  35.4348  35.4348  36.1120  36.1120  37.9635  37.9635
    39.4848  39.4848  40.2295  40.2295  43.2005  43.2005  43.7988  43.7988
    44.7451  44.7452  47.1475  47.1475  48.2871

          k = 0.0000-0.5000 0.0000 (  1850 PWs)   bands (ev):

   -48.1858 -48.1858 -24.4634 -24.4634 -24.3813 -24.3813 -24.2819 -24.2819
    -8.6932  -8.6932  -7.6740  -7.6740   3.7851   3.7851   4.9029   4.9029
     5.6032   5.6032   5.8895   5.8895   7.1808   7.1808   7.9132   7.9132
    11.3285  11.3285  11.6177  11.6177  12.2509  12.2509  14.5408  14.5408
    15.1458  15.1458  18.6684  18.6684  22.0030  22.0030  24.3469  24.3469
    26.7779  26.7779  28.3787  28.3787  29.9910  29.9910  31.6938  31.6938
    32.2902  32.2902  34.1567  34.1567  35.8593  35.8593  36.1096  36.1096
    40.5249  40.5249  41.2589  41.2589  41.5852  41.5852  44.3725  44.3725
    45.4060  45.4060  45.6986  45.6986  46.5710

          k = 0.0000-0.5000 0.2609 (  1842 PWs)   bands (ev):

   -48.1759 -48.1759 -24.4411 -24.4411 -24.4125 -24.4125 -24.3539 -24.3539
    -8.4753  -8.4753  -7.7833  -7.7833   4.1276   4.1276   4.6579   4.6579
     5.5338   5.5338   6.1765   6.1765   6.6237   6.6237   7.9503   7.9503
    11.4366  11.4366  11.8090  11.8090  12.1944  12.1944  14.1273  14.1273
    15.0592  15.0592  19.3121  19.3121  22.7132  22.7132  24.4433  24.4433
    26.0494  26.0494  27.2179  27.2179  29.8000  29.8000  31.5356  31.5356
    32.8240  32.8240  34.6437  34.6437  35.5402  35.5402  37.4591  37.4591
    39.0593  39.0593  40.6131  40.6131  42.5838  42.5838  45.0092  45.0092
    45.5685  45.5685  46.0197  46.0198  47.0209

          k = 0.0000-0.5000 0.5219 (  1842 PWs)   bands (ev):

   -48.1560 -48.1560 -24.6307 -24.6307 -24.3834 -24.3834 -24.3477 -24.3477
    -8.2151  -8.2151  -7.8112  -7.8112   4.3041   4.3041   4.6546   4.6546
     5.2517   5.2517   6.1762   6.1762   6.9050   6.9050   7.6630   7.6630
    11.0004  11.0004  11.9524  11.9524  12.4078  12.4078  13.5835  13.5835
    15.3809  15.3809  20.2912  20.2912  23.5102  23.5102  24.3464  24.3464
    24.9205  24.9205  27.1051  27.1051  27.8893  27.8893  31.4623  31.4623
    34.4288  34.4288  34.8595  34.8595  36.0410  36.0410  37.0843  37.0843
    38.3391  38.3391  41.6294  41.6294  43.5630  43.5630  44.3798  44.3798
    45.8283  45.8284  46.3681  46.3683  46.9854

          k = 0.0000-0.5000-0.7828 (  1840 PWs)   bands (ev):

   -48.1460 -48.1460 -24.7386 -24.7386 -24.3570 -24.3570 -24.3400 -24.3400
    -8.2770  -8.2770  -7.6230  -7.6230   3.7991   3.7991   4.9931   4.9931
     5.5435   5.5435   6.3582   6.3582   6.6337   6.6337   7.7030   7.7030
    10.6145  10.6145  11.8411  11.8411  12.5703  12.5703  13.5476  13.5476
    15.6390  15.6390  20.7512  20.7512  22.7010  22.7010  24.5826  24.5826
    25.7078  25.7078  26.6966  26.6966  26.9425  26.9425  31.6574  31.6574
    34.2110  34.2110  35.8018  35.8018  36.0064  36.0064  36.6341  36.6341
    40.0945  40.0945  40.3977  40.3977  43.7929  43.7929  44.0038  44.0038
    44.1454  44.1454  47.6215  47.6215  47.9372

          k = 0.1667 0.1667 0.0000 (  1861 PWs)   bands (ev):

   -48.1911 -48.1805 -24.5017 -24.4732 -24.3703 -24.3408 -24.2932 -24.2707
    -9.1937  -8.3072  -7.6323  -7.5223   3.2233   3.7175   4.3435   4.8483
     4.9013   5.9391   6.2585   6.8824   7.4409   7.7707   7.9199   8.4931
    10.7385  11.2099  11.3520  11.5166  11.5499  12.9439  13.2203  15.2196
    15.4231  15.6294  17.1228  20.3141  20.4557  22.9901  23.8037  24.8090
    26.4775  27.4341  28.5376  28.6372  30.3366  30.8515  31.1161  31.3535
    31.4708  33.2029  33.6204  34.5851  35.4723  35.9520  37.7377  37.7485
    38.2879  39.6671  40.1437  41.0775  41.0793  41.3760  42.5610  43.5137
    43.6675  45.0209  45.1851  46.1733  46.6281

          k = 0.1667 0.1667 0.2609 (  1861 PWs)   bands (ev):

   -48.1805 -48.1713 -24.4724 -24.4500 -24.4095 -24.3947 -24.3498 -24.3362
    -8.9263  -8.1176  -7.7596  -7.6576   3.5688   4.0499   4.3387   4.7413
     4.9955   5.8285   6.4832   6.6307   6.6536   7.6367   7.6957   8.2650
    11.0902  11.1548  11.5561  11.7230  11.7266  12.7339  13.5040  14.5666
    15.0396  15.5377  17.8718  21.0279  21.3442  23.3090  23.8544  24.8231
    26.4011  26.4336  27.6001  27.7621  28.8727  30.5742  30.8963  31.9438
    32.6921  32.9335  34.4615  34.5421  35.8752  36.5834  37.0326  37.6179
    38.0994  39.0926  40.2928  40.5588  42.5037  42.8826  43.2123  43.5550
    44.4542  44.9709  46.0167  46.3943  46.4721

          k = 0.1667 0.1667 0.5219 (  1840 PWs)   bands (ev):

   -48.1587 -48.1534 -24.6306 -24.6196 -24.4076 -24.3893 -24.3434 -24.3324
    -8.3695  -7.9781  -7.9253  -7.7746   4.2977   4.4545   4.4685   4.6111
     5.2075   5.4226   5.7566   6.6369   6.7242   7.1367   7.1421   7.9839
    10.8022  11.5760  11.8931  11.9047  12.0248  12.4902  13.6257  14.1806
    14.7300  15.3247  19.3184  22.0711  22.2661  23.6270  23.9963  24.8101
    25.0756  26.1754  26.7309  26.8619  27.5521  29.4708  30.3908  31.6402
    33.3696  33.4146  34.5390  35.5980  35.6323  36.9868  37.2028  37.9173
    38.9681  39.3058  40.1141  41.9156  42.5127  42.9603  43.6820  44.5066
    44.6752  45.7735  45.9518  46.5779  46.7211

          k = 0.1667 0.1667-0.7828 (  1856 PWs)   bands (ev):

   -48.1461 -48.1461 -24.7359 -24.7313 -24.3576 -24.3567 -24.3478 -24.3417
    -8.2369  -8.0576  -7.8588  -7.6710   3.9825   4.4930   4.7363   4.7626
     5.0169   6.0582   6.0593   6.2228   6.7780   6.8553   7.1524   7.2883
    11.0091  11.4332  11.8179  11.8282  12.1814  12.6442  13.5206  14.1251
    14.7546  15.3906  20.6775  21.0443  22.7470  23.3979  24.3976  25.0020
    25.0781  25.8427  26.3477  26.6210  27.1293  28.6106  30.2731  31.5616
    33.2707  33.4107  34.5607  36.2025  36.4931  36.8886  37.9550  38.7334
    39.0798  39.8667  40.5249  40.7484  41.0308  43.2421  43.7383  43.7497
    44.7567  45.0592  46.3793  46.9148  47.6655

          k = 0.1667 0.3333 0.0000 (  1849 PWs)   bands (ev):

   -48.1888 -48.1827 -24.4962 -24.4636 -24.3812 -24.3476 -24.2884 -24.2754
    -8.9863  -8.4446  -7.6913  -7.5782   3.3763   3.8323   4.8120   4.8501
     4.9032   5.8906   6.1608   6.8854   7.0098   7.5365   7.6184   8.1957
    10.9106  11.3131  11.3849  11.6210  11.9082  12.6856  13.7365  15.1447
    15.1545  15.3558  17.9232  19.7988  21.0178  22.8768  23.5656  24.4101
    26.4335  27.2663  28.7301  29.2850  29.9141  30.8180  30.8327  30.8796
    31.5381  32.6494  33.2934  34.9134  35.3964  36.5418  36.8583  37.7747
    39.5930  39.7348  40.2852  40.6075  41.8571  42.4225  43.4328  43.5446
    44.3295  44.8580  45.5534  45.8419  45.9145

          k = 0.1667 0.3333 0.2609 (  1848 PWs)   bands (ev):

   -48.1785 -48.1732 -24.4686 -24.4401 -24.4165 -24.3961 -24.3541 -24.3392
    -8.7394  -8.2401  -7.8083  -7.7046   3.7056   4.1810   4.3914   4.6717
     5.3792   5.8377   6.2357   6.3831   6.7534   7.3302   7.6104   8.0108
    11.2317  11.3139  11.5654  11.8363  11.9316  12.4940  13.8373  14.3977
    14.9725  15.3300  18.5734  20.3754  21.7641  23.4030  23.8360  24.3366
    26.1856  26.3029  27.2148  28.2432  29.2582  29.7382  30.5727  32.2162
    32.7591  32.9073  34.3792  34.6903  35.6994  36.4003  37.2817  37.8636
    38.2401  39.4074  40.3753  41.4977  42.0651  43.0458  43.3536  44.5264
    44.5957  45.6007  46.0301  46.1089  46.7477

          k = 0.1667 0.3333 0.5219 (  1847 PWs)   bands (ev):

   -48.1576 -48.1545 -24.6311 -24.6236 -24.4037 -24.3834 -24.3477 -24.3347
    -8.2938  -8.0698  -7.8966  -7.7883   4.2217   4.3333   4.4133   4.8146
     4.9628   5.5168   6.0985   6.4749   6.7807   7.0401   7.3571   7.9755
    10.8163  11.4940  11.7136  11.9518  12.1549  12.4540  13.5417  14.0527
    14.9301  15.4315  19.6766  21.1692  22.5371  23.7879  23.8384  24.4459
    25.1855  26.0827  26.1852  27.2417  27.5751  29.1784  30.2866  32.1760
    33.3751  33.8858  34.6258  35.1991  36.3224  36.4378  37.1709  37.9172
    38.4655  40.4851  40.7505  41.2951  42.5836  43.3383  43.6818  44.8914
    45.0235  45.4048  45.8496  46.4481  47.0315

          k = 0.1667 0.3333-0.7828 (  1846 PWs)   bands (ev):

   -48.1460 -48.1460 -24.7378 -24.7332 -24.3577 -24.3569 -24.3461 -24.3401
    -8.2790  -8.1490  -7.7594  -7.6209   3.8090   4.1261   4.7870   4.9513
     5.0022   5.9027   6.0778   6.2544   6.8112   7.2267   7.3246   7.6134
    10.7264  11.1083  11.8338  11.8420  12.2415  12.6305  13.4878  13.9540
    15.0823  15.5973  20.5229  21.0621  22.0948  23.0517  24.5498  24.6611
    25.4836  25.8896  26.2584  26.5206  27.1126  28.5446  30.4401  32.0389
    33.5595  33.7483  34.0745  36.1177  36.4123  36.7964  38.1663  39.0895
    39.2940  40.3059  40.4177  40.6232  42.2165  42.7657  43.2722  43.3632
    44.7472  45.6136  45.7219  46.9086  47.6374

          k = 0.1667-0.5000 0.0000 (  1856 PWs)   bands (ev):

   -48.1858 -48.1858 -24.4784 -24.4784 -24.3665 -24.3665 -24.2819 -24.2819
    -8.7041  -8.7041  -7.6573  -7.6573   3.6469   3.6469   4.8768   4.8768
     5.4979   5.4979   6.3318   6.3318   7.2466   7.2466   7.7667   7.7667
    11.2055  11.2055  11.5170  11.5170  12.3154  12.3154  14.4591  14.4591
    15.2172  15.2172  18.9038  18.9038  21.9489  21.9489  24.0079  24.0079
    26.7537  26.7537  28.8567  28.8567  30.1427  30.1427  31.5436  31.5436
    31.6580  31.6580  34.1825  34.1825  35.6647  35.6647  37.1174  37.1174
    40.2976  40.2976  40.9631  40.9631  41.4116  41.4116  44.5445  44.5445
    44.8181  44.8181  45.7378  45.7378  46.6082

          k = 0.1667-0.5000 0.2609 (  1856 PWs)   bands (ev):

   -48.1759 -48.1759 -24.4546 -24.4546 -24.4051 -24.4051 -24.3481 -24.3481
    -8.4824  -8.4824  -7.7714  -7.7714   3.9826   3.9826   4.5304   4.5304
     5.7292   5.7292   6.3946   6.3946   6.7270   6.7270   7.7759   7.7759
    11.4097  11.4097  11.6808  11.6808  12.1898  12.1898  14.2144  14.2144
    15.0358  15.0358  19.4698  19.4698  22.5886  22.5886  24.1453  24.1453
    26.1501  26.1501  27.5111  27.5111  29.4222  29.4222  31.6787  31.6787
    32.7734  32.7734  34.7640  34.7640  35.5229  35.5229  37.6362  37.6362
    39.2544  39.2544  40.6411  40.6411  42.6482  42.6482  44.2519  44.2519
    45.4906  45.4906  46.5377  46.5380  46.8853

          k = 0.1667-0.5000 0.5219 (  1852 PWs)   bands (ev):

   -48.1560 -48.1560 -24.6284 -24.6284 -24.3923 -24.3923 -24.3416 -24.3416
    -8.1873  -8.1873  -7.8372  -7.8372   4.2194   4.2194   4.5786   4.5786
     5.2692   5.2692   6.3492   6.3492   6.9125   6.9125   7.6918   7.6918
    11.0821  11.0821  11.8719  11.8719  12.3127  12.3127  13.7394  13.7394
    15.2694  15.2694  20.3152  20.3152  23.1012  23.1012  24.1210  24.1210
    25.6034  25.6034  26.5871  26.5871  28.2340  28.2340  31.5829  31.5829
    34.0700  34.0700  34.4934  34.4934  36.4421  36.4421  37.3433  37.3433
    39.2587  39.2587  41.5382  41.5382  43.3045  43.3045  44.2889  44.2889
    45.1095  45.1095  46.3460  46.3460  47.2871

          k = 0.1667-0.5000-0.7828 (  1844 PWs)   bands (ev):

   -48.1460 -48.1460 -24.7365 -24.7365 -24.3573 -24.3573 -24.3423 -24.3423
    -8.2454  -8.2454  -7.6547  -7.6547   3.8380   3.8380   4.8817   4.8817
     5.4559   5.4559   6.1390   6.1390   7.0256   7.0256   7.7512   7.7512
    10.7221  10.7221  11.8451  11.8451  12.4631  12.4631  13.6577  13.6577
    15.4879  15.4879  20.6999  20.6999  22.3798  22.3798  24.6172  24.6172
    25.8314  25.8314  26.1462  26.1462  27.7638  27.7638  31.5571  31.5571
    33.8456  33.8456  34.9519  34.9519  36.2782  36.2782  38.5698  38.5698
    40.1800  40.1800  40.6174  40.6174  42.6226  42.6226  44.0862  44.0862
    44.4746  44.4746  46.4124  46.4124  47.7980

          k = 0.3333 0.3333 0.0000 (  1852 PWs)   bands (ev):

   -48.1875 -48.1840 -24.5066 -24.4803 -24.3652 -24.3378 -24.2856 -24.2781
    -8.8787  -8.5637  -7.6769  -7.5804   3.2807   3.6680   4.8187   4.8687
     5.1442   5.9815   6.4387   7.0021   7.1749   7.2195   7.5165   8.0821
    10.7311  11.2124  11.2171  11.5199  12.1744  12.6072  13.9475  14.7700
    15.2157  15.4180  18.6264  19.9891  21.0028  22.5832  23.3099  23.9173
    26.4737  27.0288  29.6003  29.8460  30.0370  30.3151  30.3928  30.8234
    31.1346  32.1795  33.4706  34.8214  35.8484  36.0828  37.6753  38.5180
    39.4132  39.8498  39.9127  40.3090  41.4058  41.9132  43.5500  44.8445
    44.8590  45.1790  45.5503  45.5652  45.9118

          k = 0.3333 0.3333 0.2609 (  1855 PWs)   bands (ev):

   -48.1774 -48.1743 -24.4768 -24.4559 -24.4085 -24.3937 -24.3475 -24.3336
    -8.6378  -8.3494  -7.7919  -7.7107   3.6029   4.0056   4.3379   4.5206
     5.7701   6.0473   6.5345   6.6363   6.7247   7.2936   7.4648   7.6559
    11.1131  11.3271  11.5129  11.6875  12.0334  12.3696  14.0554  14.4446
    15.0395  15.1164  19.1396  20.3952  21.6211  23.0111  23.8243  24.0098
    26.0788  26.1111  27.7768  28.4244  28.4753  29.7223  30.6507  32.4237
    32.5304  32.9313  34.6190  34.7989  36.1400  36.1408  37.0519  38.0230
    39.1986  39.6512  40.0693  40.6758  42.7100  43.3146  43.3271  44.1853
    45.2435  45.4511  46.2190  46.4210  46.7255

          k = 0.3333 0.3333 0.5219 (  1858 PWs)   bands (ev):

   -48.1569 -48.1551 -24.6278 -24.6219 -24.4105 -24.3932 -24.3410 -24.3311
    -8.2176  -8.0244  -7.9697  -7.8323   4.1544   4.2027   4.2657   4.5899
     5.1592   5.5571   6.3840   6.4589   6.8695   7.1923   7.4411   7.9348
    10.9877  11.6181  11.6666  11.8137  11.9193  12.3218  13.7194  14.3637
    14.7209  15.2774  19.9149  20.8927  22.2650  23.3756  23.6861  24.1141
    25.7493  25.8701  26.3811  26.8236  27.8283  29.0867  30.8574  32.6538
    33.1070  33.6253  34.3795  34.6612  36.5652  36.9230  37.0311  38.4095
    40.2595  40.7718  41.2170  41.6459  42.1077  42.9305  43.5466  43.8235
    45.1894  45.3303  45.7283  46.6412  46.8382

          k = 0.3333 0.3333-0.7828 (  1864 PWs)   bands (ev):

   -48.1460 -48.1460 -24.7356 -24.7309 -24.3582 -24.3574 -24.3487 -24.3426
    -8.2511  -8.0982  -7.8077  -7.6463   3.7993   4.3160   4.4130   4.6884
     5.1008   5.7070   6.0699   6.0734   7.2714   7.4085   7.5227   7.8717
    10.7484  11.2649  11.8443  11.8512  11.9815  12.4913  13.6204  14.2954
    14.7439  15.4694  20.3157  21.0349  21.6251  23.1603  23.5582  24.5851
    25.5885  25.5974  26.4101  27.1915  27.4559  28.9595  30.3318  32.6553
    33.0789  33.3352  33.6616  35.9487  36.5538  36.9334  39.2993  39.9962
    40.4862  40.8620  41.0476  41.5781  41.6341  42.4254  42.7609  42.7926
    44.0090  45.2427  45.2994  46.2963  47.2166

          k = 0.3333-0.5000 0.0000 (  1854 PWs)   bands (ev):

   -48.1857 -48.1857 -24.5002 -24.5002 -24.3450 -24.3450 -24.2818 -24.2818
    -8.7250  -8.7250  -7.6247  -7.6247   3.3997   3.3997   4.8273   4.8273
     5.6691   5.6691   6.7057   6.7057   7.3802   7.3802   7.6315   7.6315
    10.9037  10.9037  11.3193  11.3193  12.4292  12.4292  14.3242  14.3242
    15.3518  15.3518  19.4264  19.4264  21.7304  21.7304  23.5515  23.5515
    26.7198  26.7198  29.5640  29.5640  30.3766  30.3766  30.4996  30.4996
    31.5661  31.5661  34.9134  34.9134  35.2443  35.2443  37.9974  37.9974
    40.1420  40.1420  40.3344  40.3344  40.8296  40.8296  44.6955  44.6955
    45.1326  45.1326  45.5763  45.5764  47.4324

          k = 0.3333-0.5000 0.2609 (  1856 PWs)   bands (ev):

   -48.1758 -48.1758 -24.4721 -24.4721 -24.3989 -24.3989 -24.3373 -24.3373
    -8.4962  -8.4962  -7.7482  -7.7482   3.7235   3.7235   4.3901   4.3901
     6.1524   6.1524   6.6089   6.6089   7.0439   7.0439   7.3973   7.3973
    11.2698  11.2698  11.4755  11.4755  12.1959  12.1959  14.3403  14.3403
    15.0236  15.0236  19.8374  19.8374  22.2033  22.2033  23.9467  23.9467
    26.0279  26.0279  27.8218  27.8218  29.1607  29.1607  31.6323  31.6323
    32.7673  32.7673  35.1917  35.1917  35.8887  35.8887  37.2985  37.2985
    39.5109  39.5109  40.7123  40.7123  42.5895  42.5895  43.7749  43.7749
    45.7419  45.7419  46.5958  46.5961  47.1633

          k = 0.3333-0.5000 0.5219 (  1854 PWs)   bands (ev):

   -48.1560 -48.1560 -24.6237 -24.6237 -24.4060 -24.4060 -24.3335 -24.3335
    -8.1125  -8.1125  -7.9083  -7.9083   4.1245   4.1245   4.3518   4.3518
     5.3987   5.3987   6.4897   6.4897   7.0883   7.0883   7.7012   7.7012
    11.3158  11.3158  11.7263  11.7263  12.0582  12.0582  14.0940  14.0940
    14.9822  14.9822  20.3420  20.3420  22.7106  22.7106  23.8169  23.8169
    25.9237  25.9237  26.4223  26.4223  28.4401  28.4401  32.1146  32.1146
    33.5206  33.5206  34.1091  34.1091  36.6814  36.6814  38.0585  38.0585
    40.5688  40.5688  41.7782  41.7782  42.5587  42.5587  43.6722  43.6722
    45.3807  45.3807  45.9699  45.9699  47.3172

          k = 0.3333-0.5000-0.7828 (  1856 PWs)   bands (ev):

   -48.1460 -48.1460 -24.7322 -24.7322 -24.3581 -24.3581 -24.3469 -24.3469
    -8.1690  -8.1690  -7.7315  -7.7315   3.9686   3.9686   4.5730   4.5730
     5.3162   5.3162   6.0796   6.0796   7.4062   7.4062   7.8724   7.8724
    10.9913  10.9913  11.8532  11.8532  12.1880  12.1880  13.9738  13.9738
    15.0943  15.0943  20.4552  20.4552  22.3533  22.3533  23.9036  23.9036
    25.5277  25.5277  26.9924  26.9924  28.1889  28.1889  31.6636  31.6636
    33.1576  33.1576  34.6729  34.6729  36.8804  36.8804  39.8448  39.8448
    40.8095  40.8095  41.6168  41.6168  42.1311  42.1311  43.5043  43.5043
    44.0983  44.0983  45.6193  45.6193  47.3819

          k =-0.5000-0.5000 0.0000 (  1832 PWs)   bands (ev):

   -48.1857 -48.1857 -24.5091 -24.5091 -24.3363 -24.3363 -24.2818 -24.2818
    -8.7351  -8.7351  -7.6087  -7.6087   3.2891   3.2891   4.8039   4.8039
     5.8792   5.8792   6.5945   6.5945   7.4485   7.4485   7.7654   7.7654
    10.7127  10.7127  11.2211  11.2211  12.4786  12.4786  14.2705  14.2705
    15.4155  15.4155  19.7425  19.7425  21.5372  21.5372  23.3965  23.3965
    26.7369  26.7369  29.5698  29.5698  30.1120  30.1120  30.7259  30.7259
    31.4941  31.4941  35.0115  35.0115  35.8707  35.8707  37.3525  37.3525
    40.0351  40.0351  40.0559  40.0559  41.1101  41.1101  44.7778  44.7778
    45.2623  45.2623  45.5983  45.5983  47.9123

          k =-0.5000-0.5000 0.2609 (  1860 PWs)   bands (ev):

   -48.1758 -48.1758 -24.4791 -24.4791 -24.3972 -24.3972 -24.3322 -24.3322
    -8.5028  -8.5028  -7.7367  -7.7367   3.6095   3.6095   4.3417   4.3417
     6.6227   6.6227   6.6393   6.6393   6.7876   6.7876   7.4257   7.4257
    11.1322  11.1322  11.4231  11.4231  12.1991  12.1991  14.3797  14.3797
    15.0374  15.0374  20.0663  20.0663  21.9537  21.9537  23.9281  23.9281
    25.9622  25.9622  27.6292  27.6292  29.4295  29.4295  31.4409  31.4409
    32.7652  32.7652  35.7603  35.7603  36.4854  36.4854  36.5542  36.5542
    38.9818  38.9818  41.3555  41.3555  42.4431  42.4432  43.4600  43.4600
    46.5394  46.6145  46.6145  46.7506  46.7507

          k =-0.5000-0.5000 0.5219 (  1864 PWs)   bands (ev):

   -48.1560 -48.1560 -24.6212 -24.6212 -24.4120 -24.4120 -24.3305 -24.3305
    -8.0275  -8.0275  -7.9915  -7.9915   4.1180   4.1180   4.2158   4.2158
     5.4659   5.4659   6.5057   6.5057   7.2464   7.2464   7.6696   7.6696
    11.5648  11.5648  11.6591  11.6591  11.8006  11.8006  14.3864  14.3864
    14.7154  14.7154  20.3396  20.3396  22.6879  22.6879  23.5463  23.5463
    25.8678  25.8678  26.5201  26.5201  28.5062  28.5062  32.7487  32.7487
    33.1305  33.1305  33.8346  33.8346  36.7463  36.7463  38.4967  38.4967
    40.9580  40.9580  41.3685  41.3685  42.4698  42.4698  44.2298  44.2298
    45.3752  45.3752  46.2983  46.2983  46.5591

          k =-0.5000-0.5000-0.7828 (  1872 PWs)   bands (ev):

   -48.1460 -48.1460 -24.7300 -24.7300 -24.3585 -24.3585 -24.3492 -24.3492
    -8.1182  -8.1182  -7.7824  -7.7824   4.1722   4.1722   4.2719   4.2719
     5.2713   5.2713   6.0802   6.0802   7.5336   7.5336   7.9507   7.9507
    11.1885  11.1885  11.8572  11.8572  11.9856  11.9856  14.2947  14.2947
    14.7357  14.7357  20.2891  20.2891  22.8235  22.8235  23.1019  23.1019
    25.5207  25.5207  27.4260  27.4260  28.1599  28.1599  32.2632  32.2632
    32.4202  32.4202  34.7650  34.7650  37.1045  37.1045  39.3918  39.3918
    41.7819  41.7819  41.8083  41.8083  42.7938  42.7938  43.2713  43.2713
    43.9825  43.9825  46.1169  46.1169  46.4936

     the Fermi energy is     8.6323 ev

!    total energy              =    -366.78760498 Ry
     Harris-Foulkes estimate   =    -366.78760499 Ry
     estimated scf accuracy    <       0.00000002 Ry

     The total energy is the sum of the following terms:

     one-electron contribution =    -130.47580177 Ry
     hartree contribution      =      88.10735153 Ry
     xc contribution           =     -63.60129878 Ry
     ewald contribution        =    -260.81791031 Ry
     smearing contrib. (-TS)   =       0.00005436 Ry

     total magnetization       =     0.00 Bohr mag/cell
     absolute magnetization    =     0.00 Bohr mag/cell

     convergence has been achieved in  11 iterations

     Forces acting on atoms (Ry/au):


     negative rho (up, down):  0.127E-01 0.127E-01
     atom    1 type  1   force =     0.00000000    0.00000000    0.00000000
     atom    2 type  1   force =     0.00000000    0.00000000    0.00000000
     atom    3 type  2   force =    -0.01719641   -0.01719641    0.00000000
     atom    4 type  2   force =     0.01719641    0.01719641    0.00000000
     atom    5 type  2   force =    -0.01719641    0.01719641    0.00000000
     atom    6 type  2   force =     0.01719641   -0.01719641    0.00000000

     Total force =     0.048639     Total SCF correction =     0.000027

     Writing output data file pwscf.save
 
     init_run     :     10.91s CPU     11.04s WALL (       1 calls)
     electrons    :    272.95s CPU    275.97s WALL (       1 calls)
     forces       :      9.78s CPU      9.97s WALL (       1 calls)

     Called by init_run:
     wfcinit      :      5.70s CPU      5.77s WALL (       1 calls)
     potinit      :      1.10s CPU      1.13s WALL (       1 calls)

     Called by electrons:
     c_bands      :    177.27s CPU    179.37s WALL (      11 calls)
     sum_band     :     60.55s CPU     61.16s WALL (      11 calls)
     v_of_rho     :      9.30s CPU      9.42s WALL (      12 calls)
     newd         :     26.50s CPU     26.59s WALL (      12 calls)
     mix_rho      :      1.08s CPU      1.08s WALL (      11 calls)

     Called by c_bands:
     init_us_2    :      1.27s CPU      1.29s WALL (     480 calls)
     cegterg      :    161.91s CPU    162.28s WALL (     220 calls)

     Called by *egterg:
     h_psi        :    103.66s CPU    103.89s WALL (     613 calls)
     s_psi        :      8.07s CPU      8.08s WALL (     613 calls)
     g_psi        :      0.95s CPU      0.94s WALL (     373 calls)
     cdiaghg      :     15.06s CPU     15.09s WALL (     593 calls)

     Called by h_psi:
     add_vuspsi   :      8.06s CPU      8.09s WALL (     613 calls)

     General routines
     calbec       :     11.93s CPU     11.94s WALL (     853 calls)
     fft          :      6.93s CPU      6.94s WALL (     381 calls)
     ffts         :      0.07s CPU      0.08s WALL (      46 calls)
     fftw         :     79.54s CPU     79.51s WALL (   83452 calls)
     interpolate  :      0.98s CPU      0.97s WALL (      46 calls)
     davcio       :      0.02s CPU      1.08s WALL (     720 calls)
 
     Parallel routines
     fft_scatter  :      8.91s CPU      8.91s WALL (   83879 calls)
 
     PWSCF        :  4m55.59s CPU     4m59.39s WALL

 
   This run was terminated on:  11:32:47  26Aug2014            

=------------------------------------------------------------------------------=
   JOB DONE.
=------------------------------------------------------------------------------=
