
     Program PWSCF v.5.0.2 (svn rev. 9656) starts on 25Aug2014 at 16:52:30 

     This program is part of the open-source Quantum ESPRESSO suite
     for quantum simulation of materials; please cite
         "P. Giannozzi et al., J. Phys.:Condens. Matter 21 395502 (2009);
          URL http://www.quantum-espresso.org", 
     in publications or presentations arising from this work. More details at
     http://www.quantum-espresso.org/quote.php

     Parallel version (MPI), running on     1 processors

     Current dimensions of program PWSCF are:
     Max number of different atomic species (ntypx) = 10
     Max number of k-points (npk) =  40000
     Max angular momentum in pseudopotentials (lmaxx) =  3
     Waiting for input...
     Reading input from standard input
Warning: card &IONS ignored
Warning: card / ignored
Warning: card &CELL ignored
Warning: card / ignored

     Subspace diagonalization in iterative solution of the eigenvalue problem:
     a serial algorithm will be used

 
     G-vector sticks info
     --------------------
     sticks:   dense  smooth     PW     G-vecs:    dense   smooth      PW
     Sum         757     253     85                13851     2565     531
 


     bravais-lattice index     =            0
     lattice parameter (alat)  =       4.7036  a.u.
     unit-cell volume          =      73.5808 (a.u.)^3
     number of atoms/cell      =            1
     number of atomic types    =            1
     number of electrons       =        18.00
     number of Kohn-Sham states=           24
     kinetic-energy cutoff     =      40.0000  Ry
     charge density cutoff     =     500.0000  Ry
     convergence threshold     =      1.0E-06
     mixing beta               =       0.7000
     number of iterations used =            8  plain     mixing
     Exchange-correlation      = SLA  PW   PBE  PBE ( 1 4 3 4 0)
     EXX-fraction              =        0.00

     celldm(1)=   4.703558  celldm(2)=   0.000000  celldm(3)=   0.000000
     celldm(4)=   0.000000  celldm(5)=   0.000000  celldm(6)=   0.000000

     crystal axes: (cart. coord. in units of alat)
               a(1) = (   0.000000   0.707107   0.707107 )  
               a(2) = (   0.707107   0.000000   0.707107 )  
               a(3) = (   0.707107   0.707107   0.000000 )  

     reciprocal axes: (cart. coord. in units 2 pi/alat)
               b(1) = ( -0.707107  0.707107  0.707107 )  
               b(2) = (  0.707107 -0.707107  0.707107 )  
               b(3) = (  0.707107  0.707107 -0.707107 )  


     PseudoPot. # 1 for Ni read from file:
     /home-research/zhongnanxu/pseudopotentials/gbrv_espresso_pseudo/ni_pbe_v1.2.uspp.F.UPF
     MD5 check sum: 96e7454ae6b001c554b5327bbfa8cffe
     Pseudo is Ultrasoft + core correction, Zval = 18.0
     Generated by new atomic code, or converted to UPF format
     Using radial grid of  865 points,  6 beta functions with: 
                l(1) =   0
                l(2) =   0
                l(3) =   1
                l(4) =   1
                l(5) =   2
                l(6) =   2
     Q(r) pseudized with  8 coefficients,  rinner =    0.980   0.980   0.980
                                                       0.980   0.980

     atomic species   valence    mass     pseudopotential
        Ni0           18.00    58.69340     Ni( 1.00)

     Starting magnetic structure 
     atomic species   magnetization
        Ni0          0.000

     48 Sym. Ops., with inversion, found



   Cartesian axes

     site n.     atom                  positions (alat units)
         1           Ni0 tau(   1) = (   0.0000000   0.0000000   0.0000000  )

     number of k points=    32  Methfessel-Paxton smearing, width (Ry)=  0.0100
                       cart. coord. in units 2pi/alat
        k(    1) = (   0.0000000   0.0000000   0.0000000), wk =   0.0046296
        k(    2) = (   0.1178511   0.1178511  -0.1178511), wk =   0.0370370
        k(    3) = (   0.2357023   0.2357023  -0.2357023), wk =   0.0370370
        k(    4) = (  -0.3535534  -0.3535534   0.3535534), wk =   0.0185185
        k(    5) = (   0.2357023   0.0000000   0.0000000), wk =   0.0277778
        k(    6) = (   0.3535534   0.1178511  -0.1178511), wk =   0.1111111
        k(    7) = (  -0.2357023  -0.4714045   0.4714045), wk =   0.1111111
        k(    8) = (  -0.1178511  -0.3535534   0.3535534), wk =   0.1111111
        k(    9) = (   0.0000000  -0.2357023   0.2357023), wk =   0.0555556
        k(   10) = (   0.4714045   0.0000000   0.0000000), wk =   0.0277778
        k(   11) = (  -0.1178511  -0.5892557   0.5892557), wk =   0.1111111
        k(   12) = (   0.0000000  -0.4714045   0.4714045), wk =   0.0555556
        k(   13) = (  -0.7071068   0.0000000   0.0000000), wk =   0.0138889
        k(   14) = (  -0.2357023  -0.4714045   0.7071068), wk =   0.1111111
        k(   15) = (  -0.1178511  -0.3535534   0.5892557), wk =   0.1111111
        k(   16) = (  -0.7071068   0.2357023   0.0000000), wk =   0.0555556
        k(   17) = (   0.0000000   0.0000000   0.0000000), wk =   0.0046296
        k(   18) = (   0.1178511   0.1178511  -0.1178511), wk =   0.0370370
        k(   19) = (   0.2357023   0.2357023  -0.2357023), wk =   0.0370370
        k(   20) = (  -0.3535534  -0.3535534   0.3535534), wk =   0.0185185
        k(   21) = (   0.2357023   0.0000000   0.0000000), wk =   0.0277778
        k(   22) = (   0.3535534   0.1178511  -0.1178511), wk =   0.1111111
        k(   23) = (  -0.2357023  -0.4714045   0.4714045), wk =   0.1111111
        k(   24) = (  -0.1178511  -0.3535534   0.3535534), wk =   0.1111111
        k(   25) = (   0.0000000  -0.2357023   0.2357023), wk =   0.0555556
        k(   26) = (   0.4714045   0.0000000   0.0000000), wk =   0.0277778
        k(   27) = (  -0.1178511  -0.5892557   0.5892557), wk =   0.1111111
        k(   28) = (   0.0000000  -0.4714045   0.4714045), wk =   0.0555556
        k(   29) = (  -0.7071068   0.0000000   0.0000000), wk =   0.0138889
        k(   30) = (  -0.2357023  -0.4714045   0.7071068), wk =   0.1111111
        k(   31) = (  -0.1178511  -0.3535534   0.5892557), wk =   0.1111111
        k(   32) = (  -0.7071068   0.2357023   0.0000000), wk =   0.0555556

     Dense  grid:    13851 G-vectors     FFT dimensions: (  36,  36,  36)

     Smooth grid:     2565 G-vectors     FFT dimensions: (  20,  20,  20)

     Largest allocated arrays     est. size (Mb)     dimensions
        Kohn-Sham Wavefunctions         0.12 Mb     (    332,   24)
        NL pseudopotentials             0.09 Mb     (    332,   18)
        Each V/rho on FFT grid          1.42 Mb     (  46656,   2)
        Each G-vector array             0.11 Mb     (  13851)
        G-vector shells                 0.00 Mb     (    189)
     Largest temporary arrays     est. size (Mb)     dimensions
        Auxiliary wavefunctions         0.49 Mb     (    332,   96)
        Each subspace H/S matrix        0.14 Mb     (  96,  96)
        Each <psi_i|beta_j> matrix      0.01 Mb     (     18,   24)
        Arrays for rho mixing           5.70 Mb     (  46656,   8)

     Check: negative/imaginary core charge=   -0.000015    0.000000

     Initial potential from superposition of free atoms

     starting charge   16.00000, renormalised to   18.00000
     Starting wfc are   13 randomized atomic wfcs

     total cpu time spent up to now is        1.7 secs

     per-process dynamical memory:    30.1 Mb

     Self-consistent Calculation

     iteration #  1     ecut=    40.00 Ry     beta=0.70
     Davidson diagonalization with overlap
     ethr =  1.00E-02,  avg # of iterations =  4.2

     total cpu time spent up to now is        5.9 secs

     total energy              =    -325.85799727 Ry
     Harris-Foulkes estimate   =    -351.53501795 Ry
     estimated scf accuracy    <      32.03875232 Ry

     total magnetization       =     0.00 Bohr mag/cell
     absolute magnetization    =     0.00 Bohr mag/cell

     iteration #  2     ecut=    40.00 Ry     beta=0.70
     Davidson diagonalization with overlap
     ethr =  1.00E-02,  avg # of iterations =  2.6

     total cpu time spent up to now is        9.1 secs

     total energy              =    -341.29502119 Ry
     Harris-Foulkes estimate   =    -361.58408516 Ry
     estimated scf accuracy    <      40.26166194 Ry

     total magnetization       =     0.00 Bohr mag/cell
     absolute magnetization    =     0.00 Bohr mag/cell

     iteration #  3     ecut=    40.00 Ry     beta=0.70
     Davidson diagonalization with overlap
     ethr =  1.00E-02,  avg # of iterations =  2.0

     total cpu time spent up to now is       12.0 secs

     total energy              =    -343.59701116 Ry
     Harris-Foulkes estimate   =    -344.71928701 Ry
     estimated scf accuracy    <       3.59414991 Ry

     total magnetization       =     0.00 Bohr mag/cell
     absolute magnetization    =     0.00 Bohr mag/cell

     iteration #  4     ecut=    40.00 Ry     beta=0.70
     Davidson diagonalization with overlap
     ethr =  1.00E-02,  avg # of iterations =  1.1

     total cpu time spent up to now is       14.1 secs

     total energy              =    -343.98527079 Ry
     Harris-Foulkes estimate   =    -343.98598273 Ry
     estimated scf accuracy    <       0.06935439 Ry

     total magnetization       =     0.00 Bohr mag/cell
     absolute magnetization    =     0.00 Bohr mag/cell

     iteration #  5     ecut=    40.00 Ry     beta=0.70
     Davidson diagonalization with overlap
     ethr =  3.85E-04,  avg # of iterations =  1.2

     total cpu time spent up to now is       16.3 secs

     total energy              =    -343.96432960 Ry
     Harris-Foulkes estimate   =    -343.98550339 Ry
     estimated scf accuracy    <       0.06375469 Ry

     total magnetization       =     0.00 Bohr mag/cell
     absolute magnetization    =     0.00 Bohr mag/cell

     iteration #  6     ecut=    40.00 Ry     beta=0.70
     Davidson diagonalization with overlap
     ethr =  3.54E-04,  avg # of iterations =  1.0

     total cpu time spent up to now is       18.5 secs

     total energy              =    -343.96953526 Ry
     Harris-Foulkes estimate   =    -343.96985421 Ry
     estimated scf accuracy    <       0.00072817 Ry

     total magnetization       =     0.00 Bohr mag/cell
     absolute magnetization    =     0.00 Bohr mag/cell

     iteration #  7     ecut=    40.00 Ry     beta=0.70
     Davidson diagonalization with overlap
     ethr =  4.05E-06,  avg # of iterations =  2.6

     total cpu time spent up to now is       24.0 secs

     total energy              =    -343.96916665 Ry
     Harris-Foulkes estimate   =    -343.96998510 Ry
     estimated scf accuracy    <       0.00176670 Ry

     total magnetization       =     0.00 Bohr mag/cell
     absolute magnetization    =     0.00 Bohr mag/cell

     iteration #  8     ecut=    40.00 Ry     beta=0.70
     Davidson diagonalization with overlap
     ethr =  4.05E-06,  avg # of iterations =  1.6

     total cpu time spent up to now is       28.9 secs

     total energy              =    -343.96946675 Ry
     Harris-Foulkes estimate   =    -343.96984484 Ry
     estimated scf accuracy    <       0.00112914 Ry

     total magnetization       =     0.00 Bohr mag/cell
     absolute magnetization    =     0.00 Bohr mag/cell

     iteration #  9     ecut=    40.00 Ry     beta=0.70
     Davidson diagonalization with overlap
     ethr =  4.05E-06,  avg # of iterations =  1.0

     total cpu time spent up to now is       33.5 secs

     total energy              =    -343.96965521 Ry
     Harris-Foulkes estimate   =    -343.96969550 Ry
     estimated scf accuracy    <       0.00008035 Ry

     total magnetization       =     0.00 Bohr mag/cell
     absolute magnetization    =     0.00 Bohr mag/cell

     iteration # 10     ecut=    40.00 Ry     beta=0.70
     Davidson diagonalization with overlap
     ethr =  4.46E-07,  avg # of iterations =  1.0

     total cpu time spent up to now is       38.2 secs

     total energy              =    -343.96969413 Ry
     Harris-Foulkes estimate   =    -343.96969544 Ry
     estimated scf accuracy    <       0.00009005 Ry

     total magnetization       =     0.00 Bohr mag/cell
     absolute magnetization    =     0.00 Bohr mag/cell

     iteration # 11     ecut=    40.00 Ry     beta=0.70
     Davidson diagonalization with overlap
     ethr =  4.46E-07,  avg # of iterations =  1.0

     total cpu time spent up to now is       42.7 secs

     total energy              =    -343.96967843 Ry
     Harris-Foulkes estimate   =    -343.96969421 Ry
     estimated scf accuracy    <       0.00008026 Ry

     total magnetization       =     0.00 Bohr mag/cell
     absolute magnetization    =     0.00 Bohr mag/cell

     iteration # 12     ecut=    40.00 Ry     beta=0.70
     Davidson diagonalization with overlap
     ethr =  4.46E-07,  avg # of iterations =  1.0

     total cpu time spent up to now is       47.2 secs

     total energy              =    -343.96968066 Ry
     Harris-Foulkes estimate   =    -343.96968292 Ry
     estimated scf accuracy    <       0.00000966 Ry

     total magnetization       =     0.00 Bohr mag/cell
     absolute magnetization    =     0.00 Bohr mag/cell

     iteration # 13     ecut=    40.00 Ry     beta=0.70
     Davidson diagonalization with overlap
     ethr =  5.36E-08,  avg # of iterations =  1.0

     total cpu time spent up to now is       51.7 secs

     End of self-consistent calculation

 ------ SPIN UP ------------


          k = 0.0000 0.0000 0.0000 (   331 PWs)   bands (ev):

   -85.5545 -45.8228 -45.8228 -45.8228   8.6634  15.6833  15.6833  15.6833
    16.7785  16.7785  41.1666  45.1491  45.1491  45.1491  47.8123  47.8123
    47.8123  51.1160  57.5069  57.5069  57.5069  59.3408  59.3408  77.2491

          k = 0.1179 0.1179-0.1179 (   320 PWs)   bands (ev):

   -85.5461 -45.8779 -45.8307 -45.8307   9.7236  15.4362  15.8627  15.8627
    16.7377  16.7377  36.3236  41.9627  43.6751  43.6751  49.1908  49.7160
    49.7160  53.3397  53.3397  58.0814  59.5468  66.1177  66.1177  80.2863

          k = 0.2357 0.2357-0.2357 (   308 PWs)   bands (ev):

   -85.5293 -45.9874 -45.8465 -45.8465  12.1890  15.5423  15.7843  15.7843
    17.1606  17.1606  28.2857  40.5306  42.5709  42.5709  46.6488  46.6488
    50.4022  57.8819  57.8819  62.2689  71.6717  74.5663  74.5663  75.6966

          k =-0.3536-0.3536 0.3536 (   332 PWs)   bands (ev):

   -85.5209 -46.0418 -45.8544 -45.8544  13.1004  15.6341  15.6341  17.4044
    17.5206  17.5206  23.5660  39.7118  42.3079  42.3079  44.9582  44.9582
    51.3478  64.0191  64.0191  66.0744  67.6760  67.6760  74.7264  82.4094

          k = 0.2357 0.0000 0.0000 (   307 PWs)   bands (ev):

   -85.5433 -45.8761 -45.8433 -45.8433  10.0664  15.1923  16.0841  16.0841
    16.3555  16.9550  39.3571  39.7588  39.7588  41.0652  46.8551  52.7082
    53.2161  53.2161  57.3171  59.7030  60.6551  60.6551  68.6091  82.0151

          k = 0.3536 0.1179-0.1179 (   313 PWs)   bands (ev):

   -85.5294 -45.9564 -45.8620 -45.8615  12.1121  14.8425  15.7317  16.2516
    17.1442  17.2866  31.4676  37.7474  38.1563  40.8073  47.4036  51.6082
    52.9251  56.2898  61.0432  64.3791  66.7352  68.2109  74.4076  75.3926

          k =-0.2357-0.4714 0.4714 (   315 PWs)   bands (ev):

   -85.5182 -46.0198 -45.8864 -45.8671  13.6049  15.0810  15.7021  16.0556
    17.5464  19.5711  24.6644  35.3747  38.0416  40.0370  50.1317  50.2427
    54.5979  57.2046  64.7096  66.0112  68.3826  72.1821  78.3559  78.8725

          k =-0.1179-0.3536 0.3536 (   314 PWs)   bands (ev):

   -85.5210 -46.0023 -45.8934 -45.8545  13.4309  15.2906  15.4190  16.0446
    17.0581  18.8670  26.6326  33.9080  40.8461  41.0908  48.7896  49.0439
    56.5624  56.8280  59.9583  64.2373  70.3216  72.2289  76.8093  79.3021

          k = 0.0000-0.2357 0.2357 (   317 PWs)   bands (ev):

   -85.5349 -45.9305 -45.8666 -45.8363  11.3281  15.1035  15.8082  16.2342
    16.3715  17.3784  33.9110  34.6691  44.2022  45.4054  46.0337  49.0872
    49.7292  55.4345  58.0164  61.9817  64.6501  67.8928  73.9311  75.0732

          k = 0.4714 0.0000 0.0000 (   323 PWs)   bands (ev):

   -85.5210 -45.9797 -45.8844 -45.8844  12.8815  14.2751  16.6969  17.0724
    17.0724  17.3169  33.3132  34.6024  34.6024  37.8111  41.6427  60.1900
    60.1900  60.7713  62.8489  63.9115  68.4740  68.4740  75.3639  75.6432

          k =-0.1179-0.5893 0.5893 (   318 PWs)   bands (ev):

   -85.5127 -46.0077 -45.9178 -45.8923  13.6222  14.1688  16.3132  17.0099
    17.6074  20.3421  28.4068  29.6727  34.0715  38.8951  45.4835  57.0318
    58.5338  65.9101  66.0485  67.6985  70.2284  73.5077  74.6721  75.4375

          k = 0.0000-0.4714 0.4714 (   309 PWs)   bands (ev):

   -85.5126 -45.9713 -45.9703 -45.8774  14.3302  14.4863  15.4495  16.6614
    17.2516  22.5711  25.2850  28.2842  36.4480  39.5837  53.9030  53.9691
    54.5285  59.0778  60.7764  67.9838  68.7741  77.2069  78.7215  82.4636

          k =-0.7071 0.0000 0.0000 (   302 PWs)   bands (ev):

   -85.5099 -46.0301 -45.9049 -45.9049  13.2523  13.8454  17.5026  17.7070
    17.7070  20.1441  27.0228  32.4860  32.4860  37.3601  40.9342  61.6719
    66.5014  68.5345  68.5345  69.0174  69.0174  72.1826  76.9916  76.9916

          k =-0.2357-0.4714 0.7071 (   318 PWs)   bands (ev):

   -85.5182 -45.9862 -45.9131 -45.8733  13.7332  14.6170  15.2864  16.8036
    17.0731  19.1729  29.8387  30.9217  34.5622  44.2873  46.4805  50.7203
    57.3536  61.7378  64.3527  64.9344  66.1943  73.2357  75.8272  77.9832

          k =-0.1179-0.3536 0.5893 (   312 PWs)   bands (ev):

   -85.5126 -45.9936 -45.9394 -45.8859  14.4718  14.4802  15.2264  16.5630
    17.4727  22.7639  24.3799  31.2265  31.9274  44.8017  47.5794  54.2221
    56.5130  58.7491  63.1786  68.3646  70.0313  75.5466  76.6076  78.7544

          k =-0.7071 0.2357 0.0000 (   308 PWs)   bands (ev):

   -85.5099 -45.9989 -45.9363 -45.9060  13.8828  14.3392  15.8673  16.9534
    17.7076  23.1767  27.4000  28.1252  29.7138  43.2860  46.8414  53.0987
    58.9464  65.4355  68.2810  68.7435  72.2543  73.1703  73.9951  77.4867

 ------ SPIN DOWN ----------


          k = 0.0000 0.0000 0.0000 (   331 PWs)   bands (ev):

   -85.5545 -45.8228 -45.8228 -45.8228   8.6634  15.6833  15.6833  15.6833
    16.7785  16.7785  41.1667  45.1491  45.1491  45.1491  47.8123  47.8123
    47.8123  51.1160  57.5069  57.5069  57.5069  59.3408  59.3408  77.2491

          k = 0.1179 0.1179-0.1179 (   320 PWs)   bands (ev):

   -85.5461 -45.8779 -45.8307 -45.8307   9.7236  15.4362  15.8627  15.8627
    16.7377  16.7377  36.3236  41.9627  43.6751  43.6751  49.1908  49.7160
    49.7160  53.3397  53.3397  58.0814  59.5468  66.1177  66.1177  80.2863

          k = 0.2357 0.2357-0.2357 (   308 PWs)   bands (ev):

   -85.5293 -45.9874 -45.8465 -45.8465  12.1890  15.5423  15.7843  15.7843
    17.1606  17.1606  28.2857  40.5306  42.5709  42.5709  46.6488  46.6488
    50.4022  57.8819  57.8819  62.2689  71.6717  74.5663  74.5663  75.6966

          k =-0.3536-0.3536 0.3536 (   332 PWs)   bands (ev):

   -85.5209 -46.0418 -45.8544 -45.8544  13.1004  15.6341  15.6341  17.4044
    17.5206  17.5206  23.5660  39.7118  42.3079  42.3079  44.9582  44.9582
    51.3478  64.0191  64.0191  66.0744  67.6760  67.6760  74.7264  82.4094

          k = 0.2357 0.0000 0.0000 (   307 PWs)   bands (ev):

   -85.5433 -45.8761 -45.8433 -45.8433  10.0664  15.1923  16.0841  16.0841
    16.3555  16.9550  39.3571  39.7588  39.7588  41.0652  46.8551  52.7082
    53.2161  53.2161  57.3171  59.7030  60.6551  60.6551  68.6091  82.0151

          k = 0.3536 0.1179-0.1179 (   313 PWs)   bands (ev):

   -85.5294 -45.9564 -45.8620 -45.8615  12.1121  14.8425  15.7317  16.2516
    17.1442  17.2866  31.4676  37.7474  38.1563  40.8073  47.4036  51.6082
    52.9251  56.2898  61.0432  64.3791  66.7352  68.2109  74.4076  75.3926

          k =-0.2357-0.4714 0.4714 (   315 PWs)   bands (ev):

   -85.5182 -46.0198 -45.8864 -45.8671  13.6049  15.0810  15.7021  16.0556
    17.5464  19.5711  24.6644  35.3747  38.0416  40.0370  50.1317  50.2427
    54.5979  57.2046  64.7096  66.0112  68.3826  72.1821  78.3559  78.8725

          k =-0.1179-0.3536 0.3536 (   314 PWs)   bands (ev):

   -85.5210 -46.0023 -45.8934 -45.8545  13.4309  15.2906  15.4190  16.0446
    17.0581  18.8670  26.6326  33.9080  40.8461  41.0908  48.7896  49.0439
    56.5624  56.8280  59.9583  64.2373  70.3216  72.2289  76.8093  79.3021

          k = 0.0000-0.2357 0.2357 (   317 PWs)   bands (ev):

   -85.5349 -45.9305 -45.8666 -45.8363  11.3281  15.1035  15.8082  16.2342
    16.3715  17.3784  33.9110  34.6691  44.2022  45.4054  46.0337  49.0872
    49.7292  55.4345  58.0164  61.9817  64.6501  67.8928  73.9311  75.0732

          k = 0.4714 0.0000 0.0000 (   323 PWs)   bands (ev):

   -85.5210 -45.9797 -45.8844 -45.8844  12.8815  14.2751  16.6969  17.0724
    17.0724  17.3169  33.3132  34.6024  34.6024  37.8111  41.6427  60.1900
    60.1900  60.7713  62.8489  63.9115  68.4740  68.4740  75.3639  75.6432

          k =-0.1179-0.5893 0.5893 (   318 PWs)   bands (ev):

   -85.5127 -46.0077 -45.9178 -45.8923  13.6222  14.1688  16.3132  17.0099
    17.6074  20.3421  28.4068  29.6727  34.0715  38.8951  45.4835  57.0318
    58.5338  65.9101  66.0485  67.6985  70.2284  73.5077  74.6721  75.4375

          k = 0.0000-0.4714 0.4714 (   309 PWs)   bands (ev):

   -85.5126 -45.9713 -45.9703 -45.8774  14.3302  14.4863  15.4495  16.6614
    17.2516  22.5711  25.2850  28.2842  36.4480  39.5837  53.9030  53.9691
    54.5285  59.0778  60.7764  67.9838  68.7741  77.2069  78.7215  82.4636

          k =-0.7071 0.0000 0.0000 (   302 PWs)   bands (ev):

   -85.5099 -46.0301 -45.9049 -45.9049  13.2523  13.8454  17.5026  17.7070
    17.7070  20.1441  27.0228  32.4860  32.4860  37.3601  40.9342  61.6719
    66.5014  68.5345  68.5345  69.0174  69.0174  72.1826  76.9916  76.9916

          k =-0.2357-0.4714 0.7071 (   318 PWs)   bands (ev):

   -85.5182 -45.9862 -45.9131 -45.8733  13.7332  14.6170  15.2864  16.8036
    17.0731  19.1729  29.8387  30.9217  34.5622  44.2873  46.4805  50.7203
    57.3536  61.7378  64.3527  64.9344  66.1943  73.2357  75.8272  77.9832

          k =-0.1179-0.3536 0.5893 (   312 PWs)   bands (ev):

   -85.5126 -45.9936 -45.9394 -45.8859  14.4718  14.4802  15.2264  16.5630
    17.4727  22.7639  24.3799  31.2265  31.9274  44.8017  47.5794  54.2221
    56.5130  58.7491  63.1786  68.3646  70.0313  75.5466  76.6076  78.7544

          k =-0.7071 0.2357 0.0000 (   308 PWs)   bands (ev):

   -85.5099 -45.9989 -45.9363 -45.9060  13.8828  14.3392  15.8673  16.9534
    17.7076  23.1767  27.4000  28.1252  29.7138  43.2860  46.8414  53.0987
    58.9464  65.4355  68.2810  68.7435  72.2543  73.1703  73.9951  77.4867

     the Fermi energy is    17.5136 ev

!    total energy              =    -343.96968081 Ry
     Harris-Foulkes estimate   =    -343.96968132 Ry
     estimated scf accuracy    <       0.00000060 Ry

     The total energy is the sum of the following terms:

     one-electron contribution =    -193.38372991 Ry
     hartree contribution      =     108.25989557 Ry
     xc contribution           =     -35.52441096 Ry
     ewald contribution        =    -223.32109733 Ry
     smearing contrib. (-TS)   =      -0.00033818 Ry

     total magnetization       =     0.00 Bohr mag/cell
     absolute magnetization    =     0.00 Bohr mag/cell

     convergence has been achieved in  13 iterations

     Forces acting on atoms (Ry/au):

     atom    1 type  1   force =     0.00000000    0.00000000    0.00000000

     Total force =     0.000000     Total SCF correction =     0.000000

     Writing output data file pwscf.save
 
     init_run     :      1.55s CPU      1.58s WALL (       1 calls)
     electrons    :     34.37s CPU     49.93s WALL (       1 calls)
     forces       :      0.55s CPU      1.06s WALL (       1 calls)

     Called by init_run:
     wfcinit      :      0.61s CPU      0.63s WALL (       1 calls)
     potinit      :      0.18s CPU      0.18s WALL (       1 calls)

     Called by electrons:
     c_bands      :     23.45s CPU     33.36s WALL (      13 calls)
     sum_band     :      6.80s CPU     10.19s WALL (      13 calls)
     v_of_rho     :      2.41s CPU      3.60s WALL (      14 calls)
     newd         :      1.42s CPU      2.21s WALL (      14 calls)
     mix_rho      :      0.22s CPU      0.35s WALL (      13 calls)

     Called by c_bands:
     init_us_2    :      0.23s CPU      0.34s WALL (     896 calls)
     cegterg      :     22.97s CPU     32.45s WALL (     416 calls)

     Called by *egterg:
     h_psi        :     17.96s CPU     26.09s WALL (    1128 calls)
     s_psi        :      0.26s CPU      0.39s WALL (    1128 calls)
     g_psi        :      0.11s CPU      0.22s WALL (     680 calls)
     cdiaghg      :      2.69s CPU      3.24s WALL (    1096 calls)

     Called by h_psi:
     add_vuspsi   :      0.32s CPU      0.59s WALL (    1128 calls)

     General routines
     calbec       :      0.58s CPU      0.67s WALL (    1576 calls)
     fft          :      1.24s CPU      1.89s WALL (     443 calls)
     ffts         :      0.03s CPU      0.02s WALL (      54 calls)
     fftw         :     14.47s CPU     20.95s WALL (   58030 calls)
     interpolate  :      0.20s CPU      0.27s WALL (      54 calls)
     davcio       :      0.02s CPU      0.31s WALL (    1344 calls)
 
     Parallel routines
     fft_scatter  :      1.06s CPU      1.62s WALL (   58527 calls)
 
     PWSCF        :    36.78s CPU        53.20s WALL

 
   This run was terminated on:  16:53:23  25Aug2014            

=------------------------------------------------------------------------------=
   JOB DONE.
=------------------------------------------------------------------------------=
