
     Program PROJWFC v.5.0.2 (svn rev. 9656) starts on 29Sep2014 at 10: 8:41 

     This program is part of the open-source Quantum ESPRESSO suite
     for quantum simulation of materials; please cite
         "P. Giannozzi et al., J. Phys.:Condens. Matter 21 395502 (2009);
          URL http://www.quantum-espresso.org", 
     in publications or presentations arising from this work. More details at
     http://www.quantum-espresso.org/quote.php

     Parallel version (MPI), running on     1 processors

   Info: using nr1, nr2, nr3 values from input

   Info: using nr1s, nr2s, nr3s values from input

     IMPORTANT: XC functional enforced from input :
     Exchange-correlation      = SLA  PW   PBE  PBE ( 1 4 3 4 0)
     EXX-fraction              =        0.00
     Any further DFT definition will be discarded
     Please, verify this is what you really want

 
     G-vector sticks info
     --------------------
     sticks:   dense  smooth     PW     G-vecs:    dense   smooth      PW
     Sum         757     253     85                13851     2565     531
 

     Check: negative/imaginary core charge=   -0.000015    0.000000

     Gaussian broadening (read from file): ngauss,degauss=   1    0.010000


     Calling projwave .... 

     Atomic states used for projection
     (read from pseudopotential files):

     state #   1: atom   1 (Ni0), wfc  1 (l=0 m= 1)
     state #   2: atom   1 (Ni0), wfc  2 (l=1 m= 1)
     state #   3: atom   1 (Ni0), wfc  2 (l=1 m= 2)
     state #   4: atom   1 (Ni0), wfc  2 (l=1 m= 3)
     state #   5: atom   1 (Ni0), wfc  3 (l=2 m= 1)
     state #   6: atom   1 (Ni0), wfc  3 (l=2 m= 2)
     state #   7: atom   1 (Ni0), wfc  3 (l=2 m= 3)
     state #   8: atom   1 (Ni0), wfc  3 (l=2 m= 4)
     state #   9: atom   1 (Ni0), wfc  3 (l=2 m= 5)
     state #  10: atom   1 (Ni0), wfc  4 (l=0 m= 1)
     state #  11: atom   1 (Ni0), wfc  5 (l=1 m= 1)
     state #  12: atom   1 (Ni0), wfc  5 (l=1 m= 2)
     state #  13: atom   1 (Ni0), wfc  5 (l=1 m= 3)

 k =   0.0000000000  0.0000000000  0.0000000000
==== e(   1) =   -85.55450 eV ==== 
     psi = 0.976*[#   1]+0.024*[#  10]+
    |psi|^2 = 1.000
==== e(   2) =   -45.82277 eV ==== 
     psi = 0.330*[#   2]+0.330*[#   3]+0.330*[#   4]+0.003*[#  11]+0.003*[#  12]+
          +0.003*[#  13]+
    |psi|^2 = 1.000
==== e(   3) =   -45.82277 eV ==== 
     psi = 0.330*[#   2]+0.330*[#   3]+0.330*[#   4]+0.003*[#  11]+0.003*[#  12]+
          +0.003*[#  13]+
    |psi|^2 = 1.000
==== e(   4) =   -45.82277 eV ==== 
     psi = 0.330*[#   2]+0.330*[#   3]+0.330*[#   4]+0.003*[#  11]+0.003*[#  12]+
          +0.003*[#  13]+
    |psi|^2 = 1.000
==== e(   5) =     8.66341 eV ==== 
     psi = 0.976*[#  10]+0.024*[#   1]+
    |psi|^2 = 1.000
==== e(   6) =    15.68334 eV ==== 
     psi = 0.332*[#   6]+0.332*[#   7]+0.332*[#   9]+
    |psi|^2 = 0.997
==== e(   7) =    15.68334 eV ==== 
     psi = 0.332*[#   6]+0.332*[#   7]+0.332*[#   9]+
    |psi|^2 = 0.997
==== e(   8) =    15.68334 eV ==== 
     psi = 0.332*[#   6]+0.332*[#   7]+0.332*[#   9]+
    |psi|^2 = 0.997
==== e(   9) =    16.77849 eV ==== 
     psi = 0.500*[#   5]+0.500*[#   8]+
    |psi|^2 = 0.999
==== e(  10) =    16.77849 eV ==== 
     psi = 0.500*[#   5]+0.500*[#   8]+
    |psi|^2 = 0.999
==== e(  11) =    41.16665 eV ==== 
     psi = 
    |psi|^2 = 0.000
==== e(  12) =    45.14912 eV ==== 
     psi = 0.218*[#  11]+0.218*[#  12]+0.218*[#  13]+0.002*[#   2]+0.002*[#   3]+
          +0.002*[#   4]+
    |psi|^2 = 0.661
==== e(  13) =    45.14912 eV ==== 
     psi = 0.218*[#  11]+0.218*[#  12]+0.218*[#  13]+0.002*[#   2]+0.002*[#   3]+
          +0.002*[#   4]+
    |psi|^2 = 0.661
==== e(  14) =    45.14912 eV ==== 
     psi = 0.218*[#  11]+0.218*[#  12]+0.218*[#  13]+0.002*[#   2]+0.002*[#   3]+
          +0.002*[#   4]+
    |psi|^2 = 0.661
==== e(  15) =    47.81232 eV ==== 
     psi = 0.001*[#   6]+0.001*[#   7]+0.001*[#   9]+
    |psi|^2 = 0.003
==== e(  16) =    47.81232 eV ==== 
     psi = 0.001*[#   6]+0.001*[#   7]+0.001*[#   9]+
    |psi|^2 = 0.003
==== e(  17) =    47.81232 eV ==== 
     psi = 0.001*[#   6]+0.001*[#   7]+0.001*[#   9]+
    |psi|^2 = 0.003
==== e(  18) =    51.11603 eV ==== 
     psi = 
    |psi|^2 = 0.000
==== e(  19) =    57.50690 eV ==== 
     psi = 0.111*[#  11]+0.111*[#  12]+0.111*[#  13]+0.001*[#   2]+0.001*[#   3]+
          +0.001*[#   4]+
    |psi|^2 = 0.337
==== e(  20) =    57.50690 eV ==== 
     psi = 0.111*[#  11]+0.111*[#  12]+0.111*[#  13]+0.001*[#   2]+0.001*[#   3]+
          +0.001*[#   4]+
    |psi|^2 = 0.337
==== e(  21) =    57.50690 eV ==== 
     psi = 0.111*[#  11]+0.111*[#  12]+0.111*[#  13]+0.001*[#   2]+0.001*[#   3]+
          +0.001*[#   4]+
    |psi|^2 = 0.337
==== e(  22) =    59.34083 eV ==== 
     psi = 
    |psi|^2 = 0.001
==== e(  23) =    59.34083 eV ==== 
     psi = 
    |psi|^2 = 0.001
==== e(  24) =    77.24911 eV ==== 
     psi = 
    |psi|^2 = 0.000

 k =   0.1178511302  0.1178511302 -0.1178511302
==== e(   1) =   -85.54612 eV ==== 
     psi = 0.944*[#   1]+0.018*[#  11]+0.018*[#  12]+0.018*[#  13]+0.002*[#  10]+
    |psi|^2 = 1.000
==== e(   2) =   -45.87792 eV ==== 
     psi = 0.332*[#   2]+0.332*[#   3]+0.332*[#   4]+0.003*[#  10]+
    |psi|^2 = 1.000
==== e(   3) =   -45.83071 eV ==== 
     psi = 0.330*[#   2]+0.330*[#   3]+0.330*[#   4]+0.003*[#  11]+0.003*[#  12]+
          +0.003*[#  13]+
    |psi|^2 = 1.000
==== e(   4) =   -45.83071 eV ==== 
     psi = 0.330*[#   2]+0.330*[#   3]+0.330*[#   4]+0.003*[#  11]+0.003*[#  12]+
          +0.003*[#  13]+
    |psi|^2 = 1.000
==== e(   5) =     9.72360 eV ==== 
     psi = 0.662*[#  10]+0.100*[#  11]+0.100*[#  12]+0.100*[#  13]+0.029*[#   1]+
          +0.003*[#   6]+0.003*[#   7]+0.003*[#   9]+
    |psi|^2 = 1.000
==== e(   6) =    15.43624 eV ==== 
     psi = 0.324*[#   6]+0.324*[#   7]+0.324*[#   9]+0.008*[#  11]+0.008*[#  12]+
          +0.008*[#  13]+
    |psi|^2 = 0.996
==== e(   7) =    15.86272 eV ==== 
     psi = 0.308*[#   6]+0.308*[#   7]+0.308*[#   9]+0.036*[#   5]+0.036*[#   8]+
    |psi|^2 = 0.997
==== e(   8) =    15.86272 eV ==== 
     psi = 0.308*[#   6]+0.308*[#   7]+0.308*[#   9]+0.036*[#   5]+0.036*[#   8]+
    |psi|^2 = 0.997
==== e(   9) =    16.73770 eV ==== 
     psi = 0.463*[#   5]+0.463*[#   8]+0.024*[#   6]+0.024*[#   7]+0.024*[#   9]+
    |psi|^2 = 0.999
==== e(  10) =    16.73770 eV ==== 
     psi = 0.463*[#   5]+0.463*[#   8]+0.024*[#   6]+0.024*[#   7]+0.024*[#   9]+
    |psi|^2 = 0.999
==== e(  11) =    36.32363 eV ==== 
     psi = 0.243*[#  10]+0.153*[#  11]+0.153*[#  12]+0.153*[#  13]+0.020*[#   1]+
          +0.006*[#   6]+0.006*[#   7]+0.006*[#   9]+
    |psi|^2 = 0.742
==== e(  12) =    41.96271 eV ==== 
     psi = 0.028*[#  10]+0.017*[#  11]+0.017*[#  12]+0.017*[#  13]+0.002*[#   1]+
    |psi|^2 = 0.081
==== e(  13) =    43.67510 eV ==== 
     psi = 0.207*[#  11]+0.207*[#  12]+0.207*[#  13]+0.002*[#   2]+0.002*[#   3]+
          +0.002*[#   4]+0.001*[#   6]+0.001*[#   7]+0.001*[#   9]+
    |psi|^2 = 0.630
==== e(  14) =    43.67510 eV ==== 
     psi = 0.207*[#  11]+0.207*[#  12]+0.207*[#  13]+0.002*[#   2]+0.002*[#   3]+
          +0.002*[#   4]+0.001*[#   6]+0.001*[#   7]+0.001*[#   9]+
    |psi|^2 = 0.630
==== e(  15) =    49.19085 eV ==== 
     psi = 0.027*[#  10]+0.017*[#  11]+0.017*[#  12]+0.017*[#  13]+0.002*[#   1]+
    |psi|^2 = 0.081
==== e(  16) =    49.71601 eV ==== 
     psi = 0.004*[#  11]+0.004*[#  12]+0.004*[#  13]+
    |psi|^2 = 0.014
==== e(  17) =    49.71601 eV ==== 
     psi = 0.004*[#  11]+0.004*[#  12]+0.004*[#  13]+
    |psi|^2 = 0.014
==== e(  18) =    53.33969 eV ==== 
     psi = 0.106*[#  11]+0.106*[#  12]+0.106*[#  13]+
    |psi|^2 = 0.321
==== e(  19) =    53.33969 eV ==== 
     psi = 0.106*[#  11]+0.106*[#  12]+0.106*[#  13]+
    |psi|^2 = 0.321
==== e(  20) =    58.08136 eV ==== 
     psi = 0.024*[#  10]+0.014*[#  11]+0.014*[#  12]+0.014*[#  13]+0.002*[#   1]+
    |psi|^2 = 0.068
==== e(  21) =    59.54685 eV ==== 
     psi = 0.011*[#  10]+0.006*[#  11]+0.006*[#  12]+0.006*[#  13]+
    |psi|^2 = 0.031
==== e(  22) =    66.11770 eV ==== 
     psi = 0.012*[#  11]+0.012*[#  12]+0.012*[#  13]+
    |psi|^2 = 0.037
==== e(  23) =    66.11770 eV ==== 
     psi = 0.012*[#  11]+0.012*[#  12]+0.012*[#  13]+
    |psi|^2 = 0.037
==== e(  24) =    80.28631 eV ==== 
     psi = 
    |psi|^2 = 0.000

 k =   0.2357022604  0.2357022604 -0.2357022604
==== e(   1) =   -85.52934 eV ==== 
     psi = 0.967*[#   1]+0.011*[#  11]+0.011*[#  12]+0.011*[#  13]+
    |psi|^2 = 1.000
==== e(   2) =   -45.98744 eV ==== 
     psi = 0.331*[#   2]+0.331*[#   3]+0.331*[#   4]+0.002*[#  11]+0.002*[#  12]+
          +0.002*[#  13]+0.001*[#  10]+
    |psi|^2 = 1.000
==== e(   3) =   -45.84655 eV ==== 
     psi = 0.331*[#   2]+0.331*[#   3]+0.331*[#   4]+0.002*[#  11]+0.002*[#  12]+
          +0.002*[#  13]+
    |psi|^2 = 1.000
==== e(   4) =   -45.84655 eV ==== 
     psi = 0.331*[#   2]+0.331*[#   3]+0.331*[#   4]+0.002*[#  11]+0.002*[#  12]+
          +0.002*[#  13]+
    |psi|^2 = 1.000
==== e(   5) =    12.18896 eV ==== 
     psi = 0.405*[#  10]+0.110*[#  11]+0.110*[#  12]+0.110*[#  13]+0.083*[#   6]+
          +0.083*[#   7]+0.083*[#   9]+0.011*[#   1]+0.001*[#   2]+0.001*[#   3]+
          +0.001*[#   4]+
    |psi|^2 = 0.998
==== e(   6) =    15.54234 eV ==== 
     psi = 0.219*[#   6]+0.219*[#   7]+0.219*[#   9]+0.106*[#  11]+0.106*[#  12]+
          +0.106*[#  13]+0.013*[#  10]+0.007*[#   1]+
    |psi|^2 = 0.997
==== e(   7) =    15.78427 eV ==== 
     psi = 0.245*[#   5]+0.245*[#   8]+0.168*[#   6]+0.168*[#   7]+0.168*[#   9]+
    |psi|^2 = 0.996
==== e(   8) =    15.78427 eV ==== 
     psi = 0.245*[#   5]+0.245*[#   8]+0.168*[#   6]+0.168*[#   7]+0.168*[#   9]+
    |psi|^2 = 0.996
==== e(   9) =    17.16058 eV ==== 
     psi = 0.254*[#   5]+0.254*[#   8]+0.163*[#   6]+0.163*[#   7]+0.163*[#   9]+
    |psi|^2 = 0.999
==== e(  10) =    17.16058 eV ==== 
     psi = 0.254*[#   5]+0.254*[#   8]+0.163*[#   6]+0.163*[#   7]+0.163*[#   9]+
    |psi|^2 = 0.999
==== e(  11) =    28.28568 eV ==== 
     psi = 0.550*[#  10]+0.101*[#  11]+0.101*[#  12]+0.101*[#  13]+0.031*[#   6]+
          +0.031*[#   7]+0.031*[#   9]+0.014*[#   1]+
    |psi|^2 = 0.960
==== e(  12) =    40.53059 eV ==== 
     psi = 
    |psi|^2 = 0.001
==== e(  13) =    42.57093 eV ==== 
     psi = 0.249*[#  11]+0.249*[#  12]+0.249*[#  13]+0.002*[#   2]+0.002*[#   3]+
          +0.002*[#   4]+0.001*[#   6]+0.001*[#   7]+0.001*[#   9]+
    |psi|^2 = 0.757
==== e(  14) =    42.57093 eV ==== 
     psi = 0.249*[#  11]+0.249*[#  12]+0.249*[#  13]+0.002*[#   2]+0.002*[#   3]+
          +0.002*[#   4]+0.001*[#   6]+0.001*[#   7]+0.001*[#   9]+
    |psi|^2 = 0.757
==== e(  15) =    46.64883 eV ==== 
     psi = 0.044*[#  11]+0.044*[#  12]+0.044*[#  13]+0.001*[#   5]+0.001*[#   8]+
    |psi|^2 = 0.136
==== e(  16) =    46.64883 eV ==== 
     psi = 0.044*[#  11]+0.044*[#  12]+0.044*[#  13]+0.001*[#   5]+0.001*[#   8]+
    |psi|^2 = 0.136
==== e(  17) =    50.40219 eV ==== 
     psi = 0.025*[#  10]+0.004*[#  11]+0.004*[#  12]+0.004*[#  13]+
    |psi|^2 = 0.037
==== e(  18) =    57.88194 eV ==== 
     psi = 0.031*[#  11]+0.031*[#  12]+0.031*[#  13]+
    |psi|^2 = 0.095
==== e(  19) =    57.88194 eV ==== 
     psi = 0.031*[#  11]+0.031*[#  12]+0.031*[#  13]+
    |psi|^2 = 0.095
==== e(  20) =    62.26888 eV ==== 
     psi = 0.004*[#  10]+
    |psi|^2 = 0.006
==== e(  21) =    71.67173 eV ==== 
     psi = 
    |psi|^2 = 0.000
==== e(  22) =    74.56630 eV ==== 
     psi = 0.005*[#  11]+0.005*[#  12]+0.005*[#  13]+
    |psi|^2 = 0.016
==== e(  23) =    74.56630 eV ==== 
     psi = 0.005*[#  11]+0.005*[#  12]+0.005*[#  13]+
    |psi|^2 = 0.016
==== e(  24) =    75.69662 eV ==== 
     psi = 
    |psi|^2 = 0.000

 k =  -0.3535533906 -0.3535533906  0.3535533906
==== e(   1) =   -85.52095 eV ==== 
     psi = 0.999*[#   1]+
    |psi|^2 = 1.000
==== e(   2) =   -46.04181 eV ==== 
     psi = 0.330*[#   2]+0.330*[#   3]+0.330*[#   4]+0.004*[#  11]+0.004*[#  12]+
          +0.004*[#  13]+
    |psi|^2 = 1.000
==== e(   3) =   -45.85444 eV ==== 
     psi = 0.331*[#   2]+0.331*[#   3]+0.331*[#   4]+0.002*[#  11]+0.002*[#  12]+
          +0.002*[#  13]+
    |psi|^2 = 1.000
==== e(   4) =   -45.85444 eV ==== 
     psi = 0.331*[#   2]+0.331*[#   3]+0.331*[#   4]+0.002*[#  11]+0.002*[#  12]+
          +0.002*[#  13]+
    |psi|^2 = 1.000
==== e(   5) =    13.10037 eV ==== 
     psi = 0.268*[#  10]+0.242*[#   6]+0.242*[#   7]+0.242*[#   9]+
    |psi|^2 = 0.995
==== e(   6) =    15.63407 eV ==== 
     psi = 0.297*[#   5]+0.297*[#   8]+0.134*[#   6]+0.134*[#   7]+0.134*[#   9]+
    |psi|^2 = 0.996
==== e(   7) =    15.63407 eV ==== 
     psi = 0.297*[#   5]+0.297*[#   8]+0.134*[#   6]+0.134*[#   7]+0.134*[#   9]+
    |psi|^2 = 0.996
==== e(   8) =    17.40444 eV ==== 
     psi = 0.330*[#  11]+0.330*[#  12]+0.330*[#  13]+0.004*[#   2]+0.004*[#   3]+
          +0.004*[#   4]+
    |psi|^2 = 0.999
==== e(   9) =    17.52057 eV ==== 
     psi = 0.202*[#   5]+0.202*[#   8]+0.199*[#   6]+0.199*[#   7]+0.199*[#   9]+
    |psi|^2 = 1.000
==== e(  10) =    17.52057 eV ==== 
     psi = 0.202*[#   5]+0.202*[#   8]+0.199*[#   6]+0.199*[#   7]+0.199*[#   9]+
    |psi|^2 = 1.000
==== e(  11) =    23.56599 eV ==== 
     psi = 0.717*[#  10]+0.091*[#   6]+0.091*[#   7]+0.091*[#   9]+
    |psi|^2 = 0.990
==== e(  12) =    39.71177 eV ==== 
     psi = 
    |psi|^2 = 0.000
==== e(  13) =    42.30788 eV ==== 
     psi = 0.308*[#  11]+0.308*[#  12]+0.308*[#  13]+0.002*[#   2]+0.002*[#   3]+
          +0.002*[#   4]+
    |psi|^2 = 0.930
==== e(  14) =    42.30788 eV ==== 
     psi = 0.308*[#  11]+0.308*[#  12]+0.308*[#  13]+0.002*[#   2]+0.002*[#   3]+
          +0.002*[#   4]+
    |psi|^2 = 0.930
==== e(  15) =    44.95823 eV ==== 
     psi = 0.001*[#   5]+0.001*[#   8]+
    |psi|^2 = 0.004
==== e(  16) =    44.95823 eV ==== 
     psi = 0.001*[#   5]+0.001*[#   8]+
    |psi|^2 = 0.004
==== e(  17) =    51.34783 eV ==== 
     psi = 0.013*[#  10]+
    |psi|^2 = 0.013
==== e(  18) =    64.01912 eV ==== 
     psi = 0.022*[#  11]+0.022*[#  12]+0.022*[#  13]+
    |psi|^2 = 0.066
==== e(  19) =    64.01912 eV ==== 
     psi = 0.022*[#  11]+0.022*[#  12]+0.022*[#  13]+
    |psi|^2 = 0.066
==== e(  20) =    66.07436 eV ==== 
     psi = 
    |psi|^2 = 0.000
==== e(  21) =    67.67600 eV ==== 
     psi = 
    |psi|^2 = 0.000
==== e(  22) =    67.67600 eV ==== 
     psi = 
    |psi|^2 = 0.000
==== e(  23) =    74.72643 eV ==== 
     psi = 0.001*[#  10]+
    |psi|^2 = 0.002
==== e(  24) =    82.40940 eV ==== 
     psi = 0.001*[#  11]+0.001*[#  12]+0.001*[#  13]+
    |psi|^2 = 0.004

 k =   0.2357022604  0.0000000000  0.0000000000
==== e(   1) =   -85.54333 eV ==== 
     psi = 0.934*[#   1]+0.022*[#  11]+0.022*[#  12]+0.022*[#  13]+
    |psi|^2 = 1.000
==== e(   2) =   -45.87606 eV ==== 
     psi = 0.332*[#   2]+0.332*[#   3]+0.332*[#   4]+0.005*[#  10]+
    |psi|^2 = 1.000
==== e(   3) =   -45.84332 eV ==== 
     psi = 0.331*[#   2]+0.331*[#   3]+0.331*[#   4]+0.002*[#  11]+0.002*[#  12]+
          +0.002*[#  13]+
    |psi|^2 = 1.000
==== e(   4) =   -45.84332 eV ==== 
     psi = 0.331*[#   2]+0.331*[#   3]+0.331*[#   4]+0.002*[#  11]+0.002*[#  12]+
          +0.002*[#  13]+
    |psi|^2 = 1.000
==== e(   5) =    10.06637 eV ==== 
     psi = 0.588*[#  10]+0.123*[#  11]+0.123*[#  12]+0.123*[#  13]+0.030*[#   1]+
          +0.005*[#   5]+0.005*[#   8]+
    |psi|^2 = 1.000
==== e(   6) =    15.19233 eV ==== 
     psi = 0.331*[#   6]+0.331*[#   7]+0.331*[#   9]+
    |psi|^2 = 0.992
==== e(   7) =    16.08413 eV ==== 
     psi = 0.329*[#   6]+0.329*[#   7]+0.329*[#   9]+0.003*[#  11]+0.003*[#  12]+
          +0.003*[#  13]+
    |psi|^2 = 0.998
==== e(   8) =    16.08413 eV ==== 
     psi = 0.329*[#   6]+0.329*[#   7]+0.329*[#   9]+0.003*[#  11]+0.003*[#  12]+
          +0.003*[#  13]+
    |psi|^2 = 0.998
==== e(   9) =    16.35553 eV ==== 
     psi = 0.493*[#   5]+0.493*[#   8]+0.005*[#  10]+0.002*[#  11]+0.002*[#  12]+
          +0.002*[#  13]+
    |psi|^2 = 0.997
==== e(  10) =    16.95504 eV ==== 
     psi = 0.500*[#   5]+0.500*[#   8]+
    |psi|^2 = 1.000
==== e(  11) =    39.35709 eV ==== 
     psi = 0.002*[#   6]+0.002*[#   7]+0.002*[#   9]+
    |psi|^2 = 0.007
==== e(  12) =    39.75875 eV ==== 
     psi = 0.285*[#  11]+0.285*[#  12]+0.285*[#  13]+0.004*[#   6]+0.004*[#   7]+
          +0.004*[#   9]+0.002*[#   2]+0.002*[#   3]+0.002*[#   4]+
    |psi|^2 = 0.872
==== e(  13) =    39.75875 eV ==== 
     psi = 0.285*[#  11]+0.285*[#  12]+0.285*[#  13]+0.004*[#   6]+0.004*[#   7]+
          +0.004*[#   9]+0.002*[#   2]+0.002*[#   3]+0.002*[#   4]+
    |psi|^2 = 0.872
==== e(  14) =    41.06517 eV ==== 
     psi = 0.043*[#  10]+0.020*[#  11]+0.020*[#  12]+0.020*[#  13]+0.004*[#   1]+
          +0.001*[#   5]+0.001*[#   8]+
    |psi|^2 = 0.109
==== e(  15) =    46.85507 eV ==== 
     psi = 0.348*[#  10]+0.162*[#  11]+0.162*[#  12]+0.162*[#  13]+0.031*[#   1]+
    |psi|^2 = 0.869
==== e(  16) =    52.70815 eV ==== 
     psi = 
    |psi|^2 = 0.001
==== e(  17) =    53.21614 eV ==== 
     psi = 
    |psi|^2 = 0.000
==== e(  18) =    53.21614 eV ==== 
     psi = 
    |psi|^2 = 0.000
==== e(  19) =    57.31713 eV ==== 
     psi = 0.004*[#  10]+0.002*[#  11]+0.002*[#  12]+0.002*[#  13]+
    |psi|^2 = 0.010
==== e(  20) =    59.70302 eV ==== 
     psi = 
    |psi|^2 = 0.000
==== e(  21) =    60.65511 eV ==== 
     psi = 0.042*[#  11]+0.042*[#  12]+0.042*[#  13]+
    |psi|^2 = 0.127
==== e(  22) =    60.65511 eV ==== 
     psi = 0.042*[#  11]+0.042*[#  12]+0.042*[#  13]+
    |psi|^2 = 0.127
==== e(  23) =    68.60908 eV ==== 
     psi = 0.006*[#  10]+0.002*[#  11]+0.002*[#  12]+0.002*[#  13]+
    |psi|^2 = 0.013
==== e(  24) =    82.01513 eV ==== 
     psi = 
    |psi|^2 = 0.000

 k =   0.3535533906  0.1178511302 -0.1178511302
==== e(   1) =   -85.52937 eV ==== 
     psi = 0.948*[#   1]+0.017*[#  11]+0.017*[#  12]+0.017*[#  13]+0.002*[#  10]+
    |psi|^2 = 1.000
==== e(   2) =   -45.95637 eV ==== 
     psi = 0.332*[#   2]+0.332*[#   3]+0.332*[#   4]+0.003*[#  10]+
    |psi|^2 = 1.000
==== e(   3) =   -45.86195 eV ==== 
     psi = 0.332*[#   2]+0.332*[#   3]+0.332*[#   4]+0.001*[#  11]+0.001*[#  12]+
          +0.001*[#  13]+
    |psi|^2 = 1.000
==== e(   4) =   -45.86150 eV ==== 
     psi = 0.332*[#   2]+0.332*[#   3]+0.332*[#   4]+0.002*[#  11]+0.002*[#  12]+
          +0.002*[#  13]+
    |psi|^2 = 1.000
==== e(   5) =    12.11205 eV ==== 
     psi = 0.365*[#  10]+0.160*[#  11]+0.160*[#  12]+0.160*[#  13]+0.033*[#   5]+
          +0.033*[#   8]+0.022*[#   6]+0.022*[#   7]+0.022*[#   9]+0.019*[#   1]+
          +0.001*[#   2]+0.001*[#   3]+0.001*[#   4]+
    |psi|^2 = 0.999
==== e(   6) =    14.84254 eV ==== 
     psi = 0.305*[#   6]+0.305*[#   7]+0.305*[#   9]+0.019*[#  11]+0.019*[#  12]+
          +0.019*[#  13]+0.010*[#   5]+0.010*[#   8]+
    |psi|^2 = 0.994
==== e(   7) =    15.73167 eV ==== 
     psi = 0.302*[#   5]+0.302*[#   8]+0.122*[#   6]+0.122*[#   7]+0.122*[#   9]+
          +0.009*[#  10]+0.005*[#  11]+0.005*[#  12]+0.005*[#  13]+
    |psi|^2 = 0.994
==== e(   8) =    16.25156 eV ==== 
     psi = 0.219*[#   6]+0.219*[#   7]+0.219*[#   9]+0.166*[#   5]+0.166*[#   8]+
          +0.004*[#  11]+0.004*[#  12]+0.004*[#  13]+
    |psi|^2 = 0.998
==== e(   9) =    17.14423 eV ==== 
     psi = 0.199*[#   6]+0.199*[#   7]+0.199*[#   9]+0.149*[#   5]+0.149*[#   8]+
          +0.026*[#  11]+0.026*[#  12]+0.026*[#  13]+0.021*[#  10]+0.002*[#   1]+
    |psi|^2 = 0.999
==== e(  10) =    17.28664 eV ==== 
     psi = 0.333*[#   5]+0.333*[#   8]+0.111*[#   6]+0.111*[#   7]+0.111*[#   9]+
    |psi|^2 = 1.000
==== e(  11) =    31.46762 eV ==== 
     psi = 0.243*[#  10]+0.210*[#  11]+0.210*[#  12]+0.210*[#  13]+0.016*[#   6]+
          +0.016*[#   7]+0.016*[#   9]+0.008*[#   1]+0.001*[#   5]+0.001*[#   8]+
    |psi|^2 = 0.933
==== e(  12) =    37.74739 eV ==== 
     psi = 0.302*[#  11]+0.302*[#  12]+0.302*[#  13]+0.004*[#   6]+0.004*[#   7]+
          +0.004*[#   9]+0.001*[#   2]+0.001*[#   3]+0.001*[#   4]+
    |psi|^2 = 0.923
==== e(  13) =    38.15626 eV ==== 
     psi = 0.030*[#  10]+0.016*[#  11]+0.016*[#  12]+0.016*[#  13]+0.003*[#   5]+
          +0.003*[#   8]+0.002*[#   1]+
    |psi|^2 = 0.089
==== e(  14) =    40.80735 eV ==== 
     psi = 0.221*[#  10]+0.091*[#  11]+0.091*[#  12]+0.091*[#  13]+0.013*[#   1]+
          +0.001*[#   6]+0.001*[#   7]+0.001*[#   9]+
    |psi|^2 = 0.512
==== e(  15) =    47.40356 eV ==== 
     psi = 0.109*[#  11]+0.109*[#  12]+0.109*[#  13]+0.090*[#  10]+0.006*[#   1]+
    |psi|^2 = 0.426
==== e(  16) =    51.60816 eV ==== 
     psi = 0.003*[#  10]+
    |psi|^2 = 0.006
==== e(  17) =    52.92511 eV ==== 
     psi = 0.009*[#  11]+0.009*[#  12]+0.009*[#  13]+
    |psi|^2 = 0.028
==== e(  18) =    56.28984 eV ==== 
     psi = 0.009*[#  10]+0.004*[#  11]+0.004*[#  12]+0.004*[#  13]+
    |psi|^2 = 0.022
==== e(  19) =    61.04322 eV ==== 
     psi = 0.008*[#  11]+0.008*[#  12]+0.008*[#  13]+
    |psi|^2 = 0.024
==== e(  20) =    64.37910 eV ==== 
     psi = 0.004*[#  11]+0.004*[#  12]+0.004*[#  13]+0.001*[#  10]+
    |psi|^2 = 0.014
==== e(  21) =    66.73520 eV ==== 
     psi = 0.001*[#  11]+0.001*[#  12]+0.001*[#  13]+
    |psi|^2 = 0.004
==== e(  22) =    68.21088 eV ==== 
     psi = 0.008*[#  11]+0.008*[#  12]+0.008*[#  13]+
    |psi|^2 = 0.024
==== e(  23) =    74.40761 eV ==== 
     psi = 
    |psi|^2 = 0.001
==== e(  24) =    75.39260 eV ==== 
     psi = 
    |psi|^2 = 0.001

 k =  -0.2357022604 -0.4714045208  0.4714045208
==== e(   1) =   -85.51819 eV ==== 
     psi = 0.985*[#   1]+0.004*[#  11]+0.004*[#  12]+0.004*[#  13]+0.002*[#  10]+
    |psi|^2 = 1.000
==== e(   2) =   -46.01978 eV ==== 
     psi = 0.331*[#   2]+0.331*[#   3]+0.331*[#   4]+0.002*[#  11]+0.002*[#  12]+
          +0.002*[#  13]+
    |psi|^2 = 1.000
==== e(   3) =   -45.88644 eV ==== 
     psi = 0.333*[#   2]+0.333*[#   3]+0.333*[#   4]+
    |psi|^2 = 1.000
==== e(   4) =   -45.86708 eV ==== 
     psi = 0.332*[#   2]+0.332*[#   3]+0.332*[#   4]+0.002*[#  11]+0.002*[#  12]+
          +0.002*[#  13]+
    |psi|^2 = 1.000
==== e(   5) =    13.60486 eV ==== 
     psi = 0.223*[#   6]+0.223*[#   7]+0.223*[#   9]+0.174*[#  10]+0.037*[#  11]+
          +0.037*[#  12]+0.037*[#  13]+0.019*[#   5]+0.019*[#   8]+0.001*[#   1]+
    |psi|^2 = 0.996
==== e(   6) =    15.08101 eV ==== 
     psi = 0.368*[#   5]+0.368*[#   8]+0.056*[#  11]+0.056*[#  12]+0.056*[#  13]+
          +0.029*[#   6]+0.029*[#   7]+0.029*[#   9]+
    |psi|^2 = 0.995
==== e(   7) =    15.70210 eV ==== 
     psi = 0.260*[#   6]+0.260*[#   7]+0.260*[#   9]+0.064*[#  11]+0.064*[#  12]+
          +0.064*[#  13]+0.010*[#  10]+0.006*[#   5]+0.006*[#   8]+
    |psi|^2 = 0.997
==== e(   8) =    16.05561 eV ==== 
     psi = 0.303*[#   5]+0.303*[#   8]+0.128*[#   6]+0.128*[#   7]+0.128*[#   9]+
          +0.003*[#  11]+0.003*[#  12]+0.003*[#  13]+
    |psi|^2 = 0.997
==== e(   9) =    17.54636 eV ==== 
     psi = 0.204*[#   6]+0.204*[#   7]+0.204*[#   9]+0.194*[#   5]+0.194*[#   8]+
    |psi|^2 = 1.000
==== e(  10) =    19.57108 eV ==== 
     psi = 0.163*[#  11]+0.163*[#  12]+0.163*[#  13]+0.097*[#   5]+0.097*[#   8]+
          +0.089*[#   6]+0.089*[#   7]+0.089*[#   9]+0.046*[#  10]+0.001*[#   1]+
          +0.001*[#   2]+0.001*[#   3]+0.001*[#   4]+
    |psi|^2 = 1.000
==== e(  11) =    24.66441 eV ==== 
     psi = 0.493*[#  10]+0.101*[#  11]+0.101*[#  12]+0.101*[#  13]+0.062*[#   6]+
          +0.062*[#   7]+0.062*[#   9]+0.003*[#   5]+0.003*[#   8]+
    |psi|^2 = 0.990
==== e(  12) =    35.37466 eV ==== 
     psi = 0.149*[#  10]+0.139*[#  11]+0.139*[#  12]+0.139*[#  13]+0.007*[#   1]+
          +0.007*[#   5]+0.007*[#   8]+0.001*[#   6]+0.001*[#   7]+0.001*[#   9]+
    |psi|^2 = 0.592
==== e(  13) =    38.04164 eV ==== 
     psi = 0.298*[#  11]+0.298*[#  12]+0.298*[#  13]+0.003*[#   5]+0.003*[#   8]+
          +0.001*[#   2]+0.001*[#   3]+0.001*[#   4]+0.001*[#   6]+0.001*[#   7]+
          +0.001*[#   9]+
    |psi|^2 = 0.909
==== e(  14) =    40.03700 eV ==== 
     psi = 0.099*[#  10]+0.077*[#  11]+0.077*[#  12]+0.077*[#  13]+0.004*[#   1]+
          +0.001*[#   6]+0.001*[#   7]+0.001*[#   9]+
    |psi|^2 = 0.337
==== e(  15) =    50.13167 eV ==== 
     psi = 0.016*[#  11]+0.016*[#  12]+0.016*[#  13]+
    |psi|^2 = 0.049
==== e(  16) =    50.24270 eV ==== 
     psi = 0.002*[#  10]+
    |psi|^2 = 0.003
==== e(  17) =    54.59794 eV ==== 
     psi = 0.019*[#  11]+0.019*[#  12]+0.019*[#  13]+0.009*[#  10]+
    |psi|^2 = 0.066
==== e(  18) =    57.20458 eV ==== 
     psi = 0.010*[#  10]+
    |psi|^2 = 0.011
==== e(  19) =    64.70955 eV ==== 
     psi = 0.012*[#  11]+0.012*[#  12]+0.012*[#  13]+
    |psi|^2 = 0.037
==== e(  20) =    66.01120 eV ==== 
     psi = 0.003*[#  10]+0.002*[#  11]+0.002*[#  12]+0.002*[#  13]+
    |psi|^2 = 0.009
==== e(  21) =    68.38261 eV ==== 
     psi = 
    |psi|^2 = 0.003
==== e(  22) =    72.18210 eV ==== 
     psi = 
    |psi|^2 = 0.001
==== e(  23) =    78.35591 eV ==== 
     psi = 0.001*[#  11]+0.001*[#  12]+0.001*[#  13]+
    |psi|^2 = 0.003
==== e(  24) =    78.87250 eV ==== 
     psi = 
    |psi|^2 = 0.002

 k =  -0.1178511302 -0.3535533906  0.3535533906
==== e(   1) =   -85.52098 eV ==== 
     psi = 0.977*[#   1]+0.007*[#  11]+0.007*[#  12]+0.007*[#  13]+0.002*[#  10]+
    |psi|^2 = 1.000
==== e(   2) =   -46.00227 eV ==== 
     psi = 0.331*[#   2]+0.331*[#   3]+0.331*[#   4]+0.002*[#  11]+0.002*[#  12]+
          +0.002*[#  13]+
    |psi|^2 = 1.000
==== e(   3) =   -45.89343 eV ==== 
     psi = 0.333*[#   2]+0.333*[#   3]+0.333*[#   4]+
    |psi|^2 = 1.000
==== e(   4) =   -45.85452 eV ==== 
     psi = 0.331*[#   2]+0.331*[#   3]+0.331*[#   4]+0.002*[#  11]+0.002*[#  12]+
          +0.002*[#  13]+
    |psi|^2 = 1.000
==== e(   5) =    13.43090 eV ==== 
     psi = 0.223*[#  10]+0.164*[#   6]+0.164*[#   7]+0.164*[#   9]+0.088*[#  11]+
          +0.088*[#  12]+0.088*[#  13]+0.006*[#   5]+0.006*[#   8]+0.004*[#   1]+
    |psi|^2 = 0.998
==== e(   6) =    15.29059 eV ==== 
     psi = 0.277*[#   5]+0.277*[#   8]+0.077*[#  11]+0.077*[#  12]+0.077*[#  13]+
          +0.069*[#   6]+0.069*[#   7]+0.069*[#   9]+0.002*[#   1]+0.001*[#  10]+
    |psi|^2 = 0.996
==== e(   7) =    15.41900 eV ==== 
     psi = 0.251*[#   6]+0.251*[#   7]+0.251*[#   9]+0.073*[#   5]+0.073*[#   8]+
          +0.029*[#  11]+0.029*[#  12]+0.029*[#  13]+0.009*[#  10]+
    |psi|^2 = 0.996
==== e(   8) =    16.04456 eV ==== 
     psi = 0.349*[#   5]+0.349*[#   8]+0.098*[#   6]+0.098*[#   7]+0.098*[#   9]+
          +0.001*[#  11]+0.001*[#  12]+0.001*[#  13]+
    |psi|^2 = 0.997
==== e(   9) =    17.05807 eV ==== 
     psi = 0.235*[#   6]+0.235*[#   7]+0.235*[#   9]+0.147*[#   5]+0.147*[#   8]+
    |psi|^2 = 0.999
==== e(  10) =    18.86696 eV ==== 
     psi = 0.135*[#   5]+0.135*[#   8]+0.134*[#   6]+0.134*[#   7]+0.134*[#   9]+
          +0.082*[#  11]+0.082*[#  12]+0.082*[#  13]+0.076*[#  10]+0.002*[#   1]+
    |psi|^2 = 1.000
==== e(  11) =    26.63260 eV ==== 
     psi = 0.408*[#  10]+0.145*[#  11]+0.145*[#  12]+0.145*[#  13]+0.042*[#   6]+
          +0.042*[#   7]+0.042*[#   9]+0.004*[#   5]+0.004*[#   8]+0.004*[#   1]+
    |psi|^2 = 0.979
==== e(  12) =    33.90805 eV ==== 
     psi = 0.196*[#  10]+0.191*[#  11]+0.191*[#  12]+0.191*[#  13]+0.008*[#   1]+
          +0.006*[#   6]+0.006*[#   7]+0.006*[#   9]+0.005*[#   5]+0.005*[#   8]+
    |psi|^2 = 0.807
==== e(  13) =    40.84610 eV ==== 
     psi = 0.259*[#  11]+0.259*[#  12]+0.259*[#  13]+0.004*[#   5]+0.004*[#   8]+
          +0.002*[#   2]+0.002*[#   3]+0.002*[#   4]+
    |psi|^2 = 0.790
==== e(  14) =    41.09083 eV ==== 
     psi = 0.061*[#  10]+0.033*[#  11]+0.033*[#  12]+0.033*[#  13]+0.002*[#   1]+
    |psi|^2 = 0.163
==== e(  15) =    48.78955 eV ==== 
     psi = 0.031*[#  11]+0.031*[#  12]+0.031*[#  13]+
    |psi|^2 = 0.094
==== e(  16) =    49.04390 eV ==== 
     psi = 0.004*[#  10]+0.002*[#  11]+0.002*[#  12]+0.002*[#  13]+
    |psi|^2 = 0.010
==== e(  17) =    56.56243 eV ==== 
     psi = 0.037*[#  11]+0.037*[#  12]+0.037*[#  13]+
    |psi|^2 = 0.111
==== e(  18) =    56.82798 eV ==== 
     psi = 0.005*[#  11]+0.005*[#  12]+0.005*[#  13]+
    |psi|^2 = 0.016
==== e(  19) =    59.95831 eV ==== 
     psi = 0.009*[#  10]+
    |psi|^2 = 0.011
==== e(  20) =    64.23729 eV ==== 
     psi = 0.006*[#  10]+0.003*[#  11]+0.003*[#  12]+0.003*[#  13]+
    |psi|^2 = 0.017
==== e(  21) =    70.32165 eV ==== 
     psi = 
    |psi|^2 = 0.002
==== e(  22) =    72.22885 eV ==== 
     psi = 
    |psi|^2 = 0.003
==== e(  23) =    76.80934 eV ==== 
     psi = 0.001*[#  11]+0.001*[#  12]+0.001*[#  13]+
    |psi|^2 = 0.004
==== e(  24) =    79.30215 eV ==== 
     psi = 
    |psi|^2 = 0.000

 k =   0.0000000000 -0.2357022604  0.2357022604
==== e(   1) =   -85.53495 eV ==== 
     psi = 0.943*[#   1]+0.019*[#  11]+0.019*[#  12]+0.019*[#  13]+
    |psi|^2 = 1.000
==== e(   2) =   -45.93049 eV ==== 
     psi = 0.332*[#   2]+0.332*[#   3]+0.332*[#   4]+0.003*[#  10]+
    |psi|^2 = 1.000
==== e(   3) =   -45.86657 eV ==== 
     psi = 0.332*[#   2]+0.332*[#   3]+0.332*[#   4]+0.001*[#  11]+0.001*[#  12]+
          +0.001*[#  13]+
    |psi|^2 = 1.000
==== e(   4) =   -45.83632 eV ==== 
     psi = 0.330*[#   2]+0.330*[#   3]+0.330*[#   4]+0.003*[#  11]+0.003*[#  12]+
          +0.003*[#  13]+
    |psi|^2 = 1.000
==== e(   5) =    11.32809 eV ==== 
     psi = 0.449*[#  10]+0.158*[#  11]+0.158*[#  12]+0.158*[#  13]+0.024*[#   1]+
          +0.013*[#   6]+0.013*[#   7]+0.013*[#   9]+0.004*[#   5]+0.004*[#   8]+
          +0.001*[#   2]+0.001*[#   3]+0.001*[#   4]+
    |psi|^2 = 1.000
==== e(   6) =    15.10348 eV ==== 
     psi = 0.318*[#   6]+0.318*[#   7]+0.318*[#   9]+0.014*[#  11]+0.014*[#  12]+
          +0.014*[#  13]+
    |psi|^2 = 0.996
==== e(   7) =    15.80821 eV ==== 
     psi = 0.209*[#   5]+0.209*[#   8]+0.186*[#   6]+0.186*[#   7]+0.186*[#   9]+
          +0.007*[#  11]+0.007*[#  12]+0.007*[#  13]+
    |psi|^2 = 0.997
==== e(   8) =    16.23416 eV ==== 
     psi = 0.333*[#   6]+0.333*[#   7]+0.333*[#   9]+
    |psi|^2 = 0.998
==== e(   9) =    16.37147 eV ==== 
     psi = 0.498*[#   5]+0.498*[#   8]+
    |psi|^2 = 0.997
==== e(  10) =    17.37841 eV ==== 
     psi = 0.285*[#   5]+0.285*[#   8]+0.130*[#   6]+0.130*[#   7]+0.130*[#   9]+
          +0.013*[#  10]+0.009*[#  11]+0.009*[#  12]+0.009*[#  13]+
    |psi|^2 = 1.000
==== e(  11) =    33.91102 eV ==== 
     psi = 0.274*[#  11]+0.274*[#  12]+0.274*[#  13]+0.015*[#   6]+0.015*[#   7]+
          +0.015*[#   9]+0.001*[#   2]+0.001*[#   3]+0.001*[#   4]+
    |psi|^2 = 0.872
==== e(  12) =    34.66908 eV ==== 
     psi = 0.440*[#  10]+0.116*[#  11]+0.116*[#  12]+0.116*[#  13]+0.025*[#   1]+
          +0.004*[#   6]+0.004*[#   7]+0.004*[#   9]+0.002*[#   5]+0.002*[#   8]+
    |psi|^2 = 0.831
==== e(  13) =    44.20224 eV ==== 
     psi = 0.059*[#  10]+0.016*[#  11]+0.016*[#  12]+0.016*[#  13]+0.003*[#   1]+
    |psi|^2 = 0.110
==== e(  14) =    45.40545 eV ==== 
     psi = 0.103*[#  11]+0.103*[#  12]+0.103*[#  13]+0.002*[#   5]+0.002*[#   8]+
    |psi|^2 = 0.315
==== e(  15) =    46.03368 eV ==== 
     psi = 0.029*[#  11]+0.029*[#  12]+0.029*[#  13]+
    |psi|^2 = 0.087
==== e(  16) =    49.08724 eV ==== 
     psi = 
    |psi|^2 = 0.002
==== e(  17) =    49.72922 eV ==== 
     psi = 0.222*[#  11]+0.222*[#  12]+0.222*[#  13]+0.002*[#   2]+0.002*[#   3]+
          +0.002*[#   4]+
    |psi|^2 = 0.673
==== e(  18) =    55.43447 eV ==== 
     psi = 0.023*[#  10]+0.005*[#  11]+0.005*[#  12]+0.005*[#  13]+0.001*[#   1]+
    |psi|^2 = 0.041
==== e(  19) =    58.01643 eV ==== 
     psi = 0.006*[#  11]+0.006*[#  12]+0.006*[#  13]+
    |psi|^2 = 0.019
==== e(  20) =    61.98171 eV ==== 
     psi = 0.009*[#  10]+0.002*[#  11]+0.002*[#  12]+0.002*[#  13]+
    |psi|^2 = 0.016
==== e(  21) =    64.65005 eV ==== 
     psi = 0.008*[#  11]+0.008*[#  12]+0.008*[#  13]+
    |psi|^2 = 0.025
==== e(  22) =    67.89282 eV ==== 
     psi = 0.001*[#  10]+
    |psi|^2 = 0.002
==== e(  23) =    73.93109 eV ==== 
     psi = 0.004*[#  11]+0.004*[#  12]+0.004*[#  13]+
    |psi|^2 = 0.011
==== e(  24) =    75.07323 eV ==== 
     psi = 0.002*[#  10]+
    |psi|^2 = 0.003

 k =   0.4714045208  0.0000000000  0.0000000000
==== e(   1) =   -85.52104 eV ==== 
     psi = 0.957*[#   1]+0.013*[#  11]+0.013*[#  12]+0.013*[#  13]+0.005*[#  10]+
    |psi|^2 = 1.000
==== e(   2) =   -45.97968 eV ==== 
     psi = 0.331*[#   2]+0.331*[#   3]+0.331*[#   4]+0.002*[#  10]+0.001*[#  11]+
          +0.001*[#  12]+0.001*[#  13]+
    |psi|^2 = 1.000
==== e(   3) =   -45.88437 eV ==== 
     psi = 0.333*[#   2]+0.333*[#   3]+0.333*[#   4]+
    |psi|^2 = 1.000
==== e(   4) =   -45.88437 eV ==== 
     psi = 0.333*[#   2]+0.333*[#   3]+0.333*[#   4]+
    |psi|^2 = 1.000
==== e(   5) =    12.88148 eV ==== 
     psi = 0.229*[#  10]+0.215*[#   5]+0.215*[#   8]+0.108*[#  11]+0.108*[#  12]+
          +0.108*[#  13]+0.008*[#   1]+
    |psi|^2 = 0.992
==== e(   6) =    14.27511 eV ==== 
     psi = 0.329*[#   6]+0.329*[#   7]+0.329*[#   9]+
    |psi|^2 = 0.986
==== e(   7) =    16.69691 eV ==== 
     psi = 0.272*[#   5]+0.272*[#   8]+0.118*[#  11]+0.118*[#  12]+0.118*[#  13]+
          +0.086*[#  10]+0.008*[#   1]+
    |psi|^2 = 0.995
==== e(   8) =    17.07242 eV ==== 
     psi = 0.329*[#   6]+0.329*[#   7]+0.329*[#   9]+0.004*[#  11]+0.004*[#  12]+
          +0.004*[#  13]+
    |psi|^2 = 1.000
==== e(   9) =    17.07242 eV ==== 
     psi = 0.329*[#   6]+0.329*[#   7]+0.329*[#   9]+0.004*[#  11]+0.004*[#  12]+
          +0.004*[#  13]+
    |psi|^2 = 1.000
==== e(  10) =    17.31688 eV ==== 
     psi = 0.500*[#   5]+0.500*[#   8]+
    |psi|^2 = 1.000
==== e(  11) =    33.31319 eV ==== 
     psi = 0.336*[#  10]+0.050*[#  11]+0.050*[#  12]+0.050*[#  13]+0.015*[#   1]+
          +0.013*[#   5]+0.013*[#   8]+
    |psi|^2 = 0.526
==== e(  12) =    34.60242 eV ==== 
     psi = 0.319*[#  11]+0.319*[#  12]+0.319*[#  13]+0.004*[#   6]+0.004*[#   7]+
          +0.004*[#   9]+
    |psi|^2 = 0.972
==== e(  13) =    34.60242 eV ==== 
     psi = 0.319*[#  11]+0.319*[#  12]+0.319*[#  13]+0.004*[#   6]+0.004*[#   7]+
          +0.004*[#   9]+
    |psi|^2 = 0.972
==== e(  14) =    37.81109 eV ==== 
     psi = 0.005*[#   6]+0.005*[#   7]+0.005*[#   9]+
    |psi|^2 = 0.014
==== e(  15) =    41.64268 eV ==== 
     psi = 0.337*[#  10]+0.044*[#  11]+0.044*[#  12]+0.044*[#  13]+0.013*[#   1]+
    |psi|^2 = 0.481
==== e(  16) =    60.19004 eV ==== 
     psi = 0.002*[#  11]+0.002*[#  12]+0.002*[#  13]+
    |psi|^2 = 0.005
==== e(  17) =    60.19004 eV ==== 
     psi = 0.002*[#  11]+0.002*[#  12]+0.002*[#  13]+
    |psi|^2 = 0.005
==== e(  18) =    60.77135 eV ==== 
     psi = 
    |psi|^2 = 0.000
==== e(  19) =    62.84890 eV ==== 
     psi = 
    |psi|^2 = 0.000
==== e(  20) =    63.91146 eV ==== 
     psi = 0.002*[#  10]+
    |psi|^2 = 0.002
==== e(  21) =    68.47398 eV ==== 
     psi = 0.006*[#  11]+0.006*[#  12]+0.006*[#  13]+
    |psi|^2 = 0.020
==== e(  22) =    68.47398 eV ==== 
     psi = 0.006*[#  11]+0.006*[#  12]+0.006*[#  13]+
    |psi|^2 = 0.020
==== e(  23) =    75.36391 eV ==== 
     psi = 
    |psi|^2 = 0.001
==== e(  24) =    75.64315 eV ==== 
     psi = 
    |psi|^2 = 0.000

 k =  -0.1178511302 -0.5892556510  0.5892556510
==== e(   1) =   -85.51267 eV ==== 
     psi = 0.985*[#   1]+0.006*[#  10]+0.003*[#  11]+0.003*[#  12]+0.003*[#  13]+
    |psi|^2 = 1.000
==== e(   2) =   -46.00774 eV ==== 
     psi = 0.332*[#   2]+0.332*[#   3]+0.332*[#   4]+0.002*[#  11]+0.002*[#  12]+
          +0.002*[#  13]+
    |psi|^2 = 1.000
==== e(   3) =   -45.91785 eV ==== 
     psi = 0.333*[#   2]+0.333*[#   3]+0.333*[#   4]+
    |psi|^2 = 1.000
==== e(   4) =   -45.89231 eV ==== 
     psi = 0.333*[#   2]+0.333*[#   3]+0.333*[#   4]+
    |psi|^2 = 1.000
==== e(   5) =    13.62220 eV ==== 
     psi = 0.372*[#   5]+0.372*[#   8]+0.092*[#  10]+0.032*[#  11]+0.032*[#  12]+
          +0.032*[#  13]+0.018*[#   6]+0.018*[#   7]+0.018*[#   9]+
    |psi|^2 = 0.988
==== e(   6) =    14.16876 eV ==== 
     psi = 0.297*[#   6]+0.297*[#   7]+0.297*[#   9]+0.020*[#  11]+0.020*[#  12]+
          +0.020*[#  13]+0.019*[#   5]+0.019*[#   8]+
    |psi|^2 = 0.991
==== e(   7) =    16.31317 eV ==== 
     psi = 0.247*[#   6]+0.247*[#   7]+0.247*[#   9]+0.064*[#  11]+0.064*[#  12]+
          +0.064*[#  13]+0.024*[#   5]+0.024*[#   8]+0.018*[#  10]+
    |psi|^2 = 0.999
==== e(   8) =    17.00988 eV ==== 
     psi = 0.355*[#   5]+0.355*[#   8]+0.093*[#   6]+0.093*[#   7]+0.093*[#   9]+
          +0.003*[#  11]+0.003*[#  12]+0.003*[#  13]+
    |psi|^2 = 0.999
==== e(   9) =    17.60741 eV ==== 
     psi = 0.239*[#   6]+0.239*[#   7]+0.239*[#   9]+0.142*[#   5]+0.142*[#   8]+
    |psi|^2 = 1.000
==== e(  10) =    20.34206 eV ==== 
     psi = 0.187*[#  11]+0.187*[#  12]+0.187*[#  13]+0.089*[#  10]+0.082*[#   6]+
          +0.082*[#   7]+0.082*[#   9]+0.049*[#   5]+0.049*[#   8]+0.002*[#   1]+
          +0.001*[#   2]+0.001*[#   3]+0.001*[#   4]+
    |psi|^2 = 0.999
==== e(  11) =    28.40679 eV ==== 
     psi = 0.279*[#  11]+0.279*[#  12]+0.279*[#  13]+0.061*[#  10]+0.018*[#   6]+
          +0.018*[#   7]+0.018*[#   9]+0.012*[#   5]+0.012*[#   8]+
    |psi|^2 = 0.976
==== e(  12) =    29.67269 eV ==== 
     psi = 0.612*[#  10]+0.058*[#  11]+0.058*[#  12]+0.058*[#  13]+0.024*[#   5]+
          +0.024*[#   8]+0.011*[#   1]+0.001*[#   6]+0.001*[#   7]+0.001*[#   9]+
    |psi|^2 = 0.849
==== e(  13) =    34.07149 eV ==== 
     psi = 0.321*[#  11]+0.321*[#  12]+0.321*[#  13]+0.003*[#   5]+0.003*[#   8]+
          +0.001*[#   6]+0.001*[#   7]+0.001*[#   9]+
    |psi|^2 = 0.974
==== e(  14) =    38.89507 eV ==== 
     psi = 0.063*[#  10]+0.004*[#  11]+0.004*[#  12]+0.004*[#  13]+0.002*[#   6]+
          +0.002*[#   7]+0.002*[#   9]+
    |psi|^2 = 0.084
==== e(  15) =    45.48346 eV ==== 
     psi = 0.052*[#  10]+0.015*[#  11]+0.015*[#  12]+0.015*[#  13]+
    |psi|^2 = 0.097
==== e(  16) =    57.03184 eV ==== 
     psi = 0.002*[#  11]+0.002*[#  12]+0.002*[#  13]+
    |psi|^2 = 0.005
==== e(  17) =    58.53379 eV ==== 
     psi = 0.001*[#  10]+
    |psi|^2 = 0.003
==== e(  18) =    65.91014 eV ==== 
     psi = 
    |psi|^2 = 0.002
==== e(  19) =    66.04849 eV ==== 
     psi = 0.004*[#  11]+0.004*[#  12]+0.004*[#  13]+
    |psi|^2 = 0.012
==== e(  20) =    67.69851 eV ==== 
     psi = 0.003*[#  10]+
    |psi|^2 = 0.006
==== e(  21) =    70.22842 eV ==== 
     psi = 
    |psi|^2 = 0.003
==== e(  22) =    73.50772 eV ==== 
     psi = 
    |psi|^2 = 0.001
==== e(  23) =    74.67208 eV ==== 
     psi = 0.001*[#  11]+0.001*[#  12]+0.001*[#  13]+
    |psi|^2 = 0.004
==== e(  24) =    75.43745 eV ==== 
     psi = 0.001*[#  10]+
    |psi|^2 = 0.002

 k =   0.0000000000 -0.4714045208  0.4714045208
==== e(   1) =   -85.51264 eV ==== 
     psi = 0.990*[#   1]+0.005*[#  10]+0.001*[#  11]+0.001*[#  12]+0.001*[#  13]+
    |psi|^2 = 1.000
==== e(   2) =   -45.97127 eV ==== 
     psi = 0.332*[#   2]+0.332*[#   3]+0.332*[#   4]+
    |psi|^2 = 1.000
==== e(   3) =   -45.97031 eV ==== 
     psi = 0.333*[#   2]+0.333*[#   3]+0.333*[#   4]+
    |psi|^2 = 1.000
==== e(   4) =   -45.87740 eV ==== 
     psi = 0.332*[#   2]+0.332*[#   3]+0.332*[#   4]+0.001*[#  11]+0.001*[#  12]+
          +0.001*[#  13]+
    |psi|^2 = 1.000
==== e(   5) =    14.33022 eV ==== 
     psi = 0.241*[#   6]+0.241*[#   7]+0.241*[#   9]+0.088*[#   5]+0.088*[#   8]+
          +0.063*[#  10]+0.010*[#  11]+0.010*[#  12]+0.010*[#  13]+
    |psi|^2 = 0.990
==== e(   6) =    14.48629 eV ==== 
     psi = 0.333*[#   5]+0.333*[#   8]+0.079*[#  11]+0.079*[#  12]+0.079*[#  13]+
          +0.031*[#   6]+0.031*[#   7]+0.031*[#   9]+
    |psi|^2 = 0.996
==== e(   7) =    15.44952 eV ==== 
     psi = 0.277*[#   6]+0.277*[#   7]+0.277*[#   9]+0.056*[#  11]+0.056*[#  12]+
          +0.056*[#  13]+
    |psi|^2 = 0.999
==== e(   8) =    16.66135 eV ==== 
     psi = 0.493*[#   5]+0.493*[#   8]+0.004*[#  11]+0.004*[#  12]+0.004*[#  13]+
    |psi|^2 = 0.999
==== e(   9) =    17.25161 eV ==== 
     psi = 0.333*[#   6]+0.333*[#   7]+0.333*[#   9]+
    |psi|^2 = 0.999
==== e(  10) =    22.57106 eV ==== 
     psi = 0.189*[#  11]+0.189*[#  12]+0.189*[#  13]+0.160*[#  10]+0.059*[#   6]+
          +0.059*[#   7]+0.059*[#   9]+0.046*[#   5]+0.046*[#   8]+
    |psi|^2 = 0.997
==== e(  11) =    25.28499 eV ==== 
     psi = 0.276*[#  11]+0.276*[#  12]+0.276*[#  13]+0.056*[#   6]+0.056*[#   7]+
          +0.056*[#   9]+
    |psi|^2 = 0.996
==== e(  12) =    28.28418 eV ==== 
     psi = 0.693*[#  10]+0.047*[#  11]+0.047*[#  12]+0.047*[#  13]+0.034*[#   5]+
          +0.034*[#   8]+0.008*[#   1]+0.002*[#   6]+0.002*[#   7]+0.002*[#   9]+
    |psi|^2 = 0.913
==== e(  13) =    36.44796 eV ==== 
     psi = 0.307*[#  11]+0.307*[#  12]+0.307*[#  13]+0.007*[#   5]+0.007*[#   8]+
          +0.001*[#   2]+0.001*[#   3]+0.001*[#   4]+
    |psi|^2 = 0.939
==== e(  14) =    39.58366 eV ==== 
     psi = 0.056*[#  10]+0.005*[#  11]+0.005*[#  12]+0.005*[#  13]+0.001*[#   6]+
          +0.001*[#   7]+0.001*[#   9]+
    |psi|^2 = 0.074
==== e(  15) =    53.90296 eV ==== 
     psi = 0.011*[#  10]+0.002*[#  11]+0.002*[#  12]+0.002*[#  13]+
    |psi|^2 = 0.017
==== e(  16) =    53.96913 eV ==== 
     psi = 
    |psi|^2 = 0.001
==== e(  17) =    54.52854 eV ==== 
     psi = 0.001*[#  11]+0.001*[#  12]+0.001*[#  13]+
    |psi|^2 = 0.004
==== e(  18) =    59.07783 eV ==== 
     psi = 0.019*[#  11]+0.019*[#  12]+0.019*[#  13]+
    |psi|^2 = 0.056
==== e(  19) =    60.77640 eV ==== 
     psi = 0.008*[#  10]+
    |psi|^2 = 0.008
==== e(  20) =    67.98377 eV ==== 
     psi = 0.003*[#  10]+
    |psi|^2 = 0.003
==== e(  21) =    68.77411 eV ==== 
     psi = 
    |psi|^2 = 0.001
==== e(  22) =    77.20687 eV ==== 
     psi = 
    |psi|^2 = 0.003
==== e(  23) =    78.72152 eV ==== 
     psi = 
    |psi|^2 = 0.000
==== e(  24) =    82.46358 eV ==== 
     psi = 
    |psi|^2 = 0.000

 k =  -0.7071067812  0.0000000000  0.0000000000
==== e(   1) =   -85.50991 eV ==== 
     psi = 0.993*[#   1]+0.006*[#  10]+
    |psi|^2 = 1.000
==== e(   2) =   -46.03012 eV ==== 
     psi = 0.331*[#   2]+0.331*[#   3]+0.331*[#   4]+0.002*[#  11]+0.002*[#  12]+
          +0.002*[#  13]+
    |psi|^2 = 1.000
==== e(   3) =   -45.90490 eV ==== 
     psi = 0.333*[#   2]+0.333*[#   3]+0.333*[#   4]+
    |psi|^2 = 1.000
==== e(   4) =   -45.90490 eV ==== 
     psi = 0.333*[#   2]+0.333*[#   3]+0.333*[#   4]+
    |psi|^2 = 1.000
==== e(   5) =    13.25225 eV ==== 
     psi = 0.436*[#   5]+0.436*[#   8]+0.110*[#  10]+
    |psi|^2 = 0.982
==== e(   6) =    13.84539 eV ==== 
     psi = 0.328*[#   6]+0.328*[#   7]+0.328*[#   9]+
    |psi|^2 = 0.983
==== e(   7) =    17.50264 eV ==== 
     psi = 0.500*[#   5]+0.500*[#   8]+
    |psi|^2 = 1.000
==== e(   8) =    17.70695 eV ==== 
     psi = 0.333*[#   6]+0.333*[#   7]+0.333*[#   9]+
    |psi|^2 = 1.000
==== e(   9) =    17.70695 eV ==== 
     psi = 0.333*[#   6]+0.333*[#   7]+0.333*[#   9]+
    |psi|^2 = 1.000
==== e(  10) =    20.14409 eV ==== 
     psi = 0.331*[#  11]+0.331*[#  12]+0.331*[#  13]+0.002*[#   2]+0.002*[#   3]+
          +0.002*[#   4]+
    |psi|^2 = 0.999
==== e(  11) =    27.02281 eV ==== 
     psi = 0.744*[#  10]+0.064*[#   5]+0.064*[#   8]+0.006*[#   1]+
    |psi|^2 = 0.878
==== e(  12) =    32.48599 eV ==== 
     psi = 0.328*[#  11]+0.328*[#  12]+0.328*[#  13]+
    |psi|^2 = 0.985
==== e(  13) =    32.48599 eV ==== 
     psi = 0.328*[#  11]+0.328*[#  12]+0.328*[#  13]+
    |psi|^2 = 0.985
==== e(  14) =    37.36014 eV ==== 
     psi = 0.006*[#   6]+0.006*[#   7]+0.006*[#   9]+
    |psi|^2 = 0.017
==== e(  15) =    40.93418 eV ==== 
     psi = 0.137*[#  10]+
    |psi|^2 = 0.138
==== e(  16) =    61.67186 eV ==== 
     psi = 
    |psi|^2 = 0.000
==== e(  17) =    66.50138 eV ==== 
     psi = 
    |psi|^2 = 0.001
==== e(  18) =    68.53452 eV ==== 
     psi = 
    |psi|^2 = 0.000
==== e(  19) =    68.53452 eV ==== 
     psi = 
    |psi|^2 = 0.000
==== e(  20) =    69.01740 eV ==== 
     psi = 0.002*[#  11]+0.002*[#  12]+0.002*[#  13]+
    |psi|^2 = 0.006
==== e(  21) =    69.01740 eV ==== 
     psi = 0.002*[#  11]+0.002*[#  12]+0.002*[#  13]+
    |psi|^2 = 0.006
==== e(  22) =    72.18261 eV ==== 
     psi = 
    |psi|^2 = 0.000
==== e(  23) =    76.99161 eV ==== 
     psi = 0.003*[#  11]+0.003*[#  12]+0.003*[#  13]+
    |psi|^2 = 0.009
==== e(  24) =    76.99161 eV ==== 
     psi = 0.003*[#  11]+0.003*[#  12]+0.003*[#  13]+
    |psi|^2 = 0.009

 k =  -0.2357022604 -0.4714045208  0.7071067812
==== e(   1) =   -85.51822 eV ==== 
     psi = 0.971*[#   1]+0.008*[#  11]+0.008*[#  12]+0.008*[#  13]+0.005*[#  10]+
    |psi|^2 = 1.000
==== e(   2) =   -45.98621 eV ==== 
     psi = 0.332*[#   2]+0.332*[#   3]+0.332*[#   4]+0.001*[#  10]+0.001*[#  11]+
          +0.001*[#  12]+0.001*[#  13]+
    |psi|^2 = 1.000
==== e(   3) =   -45.91305 eV ==== 
     psi = 0.333*[#   2]+0.333*[#   3]+0.333*[#   4]+
    |psi|^2 = 1.000
==== e(   4) =   -45.87334 eV ==== 
     psi = 0.332*[#   2]+0.332*[#   3]+0.332*[#   4]+0.001*[#  11]+0.001*[#  12]+
          +0.001*[#  13]+
    |psi|^2 = 1.000
==== e(   5) =    13.73320 eV ==== 
     psi = 0.180*[#   5]+0.180*[#   8]+0.153*[#  10]+0.124*[#  11]+0.124*[#  12]+
          +0.124*[#  13]+0.034*[#   6]+0.034*[#   7]+0.034*[#   9]+0.005*[#   1]+
    |psi|^2 = 0.997
==== e(   6) =    14.61696 eV ==== 
     psi = 0.308*[#   6]+0.308*[#   7]+0.308*[#   9]+0.024*[#  11]+0.024*[#  12]+
          +0.024*[#  13]+
    |psi|^2 = 0.995
==== e(   7) =    15.28645 eV ==== 
     psi = 0.212*[#   5]+0.212*[#   8]+0.161*[#   6]+0.161*[#   7]+0.161*[#   9]+
          +0.026*[#  10]+0.021*[#  11]+0.021*[#  12]+0.021*[#  13]+
    |psi|^2 = 0.995
==== e(   8) =    16.80364 eV ==== 
     psi = 0.478*[#   5]+0.478*[#   8]+0.013*[#  11]+0.013*[#  12]+0.013*[#  13]+
    |psi|^2 = 0.999
==== e(   9) =    17.07314 eV ==== 
     psi = 0.330*[#   6]+0.330*[#   7]+0.330*[#   9]+0.003*[#  11]+0.003*[#  12]+
          +0.003*[#  13]+
    |psi|^2 = 0.999
==== e(  10) =    19.17293 eV ==== 
     psi = 0.133*[#   6]+0.133*[#   7]+0.133*[#   9]+0.107*[#   5]+0.107*[#   8]+
          +0.100*[#  10]+0.094*[#  11]+0.094*[#  12]+0.094*[#  13]+0.003*[#   1]+
    |psi|^2 = 1.000
==== e(  11) =    29.83875 eV ==== 
     psi = 0.296*[#  11]+0.296*[#  12]+0.296*[#  13]+0.028*[#   6]+0.028*[#   7]+
          +0.028*[#   9]+
    |psi|^2 = 0.972
==== e(  12) =    30.92167 eV ==== 
     psi = 0.330*[#  10]+0.182*[#  11]+0.182*[#  12]+0.182*[#  13]+0.013*[#   5]+
          +0.013*[#   8]+0.006*[#   1]+0.004*[#   6]+0.004*[#   7]+0.004*[#   9]+
    |psi|^2 = 0.922
==== e(  13) =    34.56225 eV ==== 
     psi = 0.323*[#  10]+0.134*[#  11]+0.134*[#  12]+0.134*[#  13]+0.011*[#   1]+
          +0.009*[#   5]+0.009*[#   8]+
    |psi|^2 = 0.757
==== e(  14) =    44.28734 eV ==== 
     psi = 0.007*[#  11]+0.007*[#  12]+0.007*[#  13]+
    |psi|^2 = 0.022
==== e(  15) =    46.48048 eV ==== 
     psi = 0.077*[#  11]+0.077*[#  12]+0.077*[#  13]+0.023*[#  10]+0.001*[#   1]+
    |psi|^2 = 0.256
==== e(  16) =    50.72029 eV ==== 
     psi = 0.028*[#  10]+0.005*[#  11]+0.005*[#  12]+0.005*[#  13]+
    |psi|^2 = 0.044
==== e(  17) =    57.35361 eV ==== 
     psi = 
    |psi|^2 = 0.002
==== e(  18) =    61.73775 eV ==== 
     psi = 0.001*[#  11]+0.001*[#  12]+0.001*[#  13]+
    |psi|^2 = 0.005
==== e(  19) =    64.35271 eV ==== 
     psi = 0.002*[#  11]+0.002*[#  12]+0.002*[#  13]+
    |psi|^2 = 0.007
==== e(  20) =    64.93437 eV ==== 
     psi = 0.006*[#  10]+0.003*[#  11]+0.003*[#  12]+0.003*[#  13]+
    |psi|^2 = 0.015
==== e(  21) =    66.19432 eV ==== 
     psi = 0.001*[#  11]+0.001*[#  12]+0.001*[#  13]+0.001*[#  10]+
    |psi|^2 = 0.006
==== e(  22) =    73.23572 eV ==== 
     psi = 
    |psi|^2 = 0.002
==== e(  23) =    75.82720 eV ==== 
     psi = 
    |psi|^2 = 0.001
==== e(  24) =    77.98321 eV ==== 
     psi = 
    |psi|^2 = 0.001

 k =  -0.1178511302 -0.3535533906  0.5892556510
==== e(   1) =   -85.51264 eV ==== 
     psi = 0.989*[#   1]+0.005*[#  10]+0.002*[#  11]+0.002*[#  12]+0.002*[#  13]+
    |psi|^2 = 1.000
==== e(   2) =   -45.99363 eV ==== 
     psi = 0.332*[#   2]+0.332*[#   3]+0.332*[#   4]+0.001*[#  11]+0.001*[#  12]+
          +0.001*[#  13]+
    |psi|^2 = 1.000
==== e(   3) =   -45.93941 eV ==== 
     psi = 0.333*[#   2]+0.333*[#   3]+0.333*[#   4]+
    |psi|^2 = 1.000
==== e(   4) =   -45.88594 eV ==== 
     psi = 0.333*[#   2]+0.333*[#   3]+0.333*[#   4]+
    |psi|^2 = 1.000
==== e(   5) =    14.47178 eV ==== 
     psi = 0.415*[#   5]+0.415*[#   8]+0.055*[#  11]+0.055*[#  12]+0.055*[#  13]+
    |psi|^2 = 0.995
==== e(   6) =    14.48016 eV ==== 
     psi = 0.266*[#   6]+0.266*[#   7]+0.266*[#   9]+0.055*[#  10]+0.044*[#  11]+
          +0.044*[#  12]+0.044*[#  13]+0.006*[#   5]+0.006*[#   8]+
    |psi|^2 = 0.997
==== e(   7) =    15.22638 eV ==== 
     psi = 0.282*[#   6]+0.282*[#   7]+0.282*[#   9]+0.048*[#  11]+0.048*[#  12]+
          +0.048*[#  13]+0.003*[#   5]+0.003*[#   8]+
    |psi|^2 = 0.997
==== e(   8) =    16.56305 eV ==== 
     psi = 0.434*[#   5]+0.434*[#   8]+0.037*[#   6]+0.037*[#   7]+0.037*[#   9]+
          +0.005*[#  10]+0.004*[#  11]+0.004*[#  12]+0.004*[#  13]+
    |psi|^2 = 0.998
==== e(   9) =    17.47266 eV ==== 
     psi = 0.298*[#   6]+0.298*[#   7]+0.298*[#   9]+0.051*[#   5]+0.051*[#   8]+
          +0.002*[#  10]+
    |psi|^2 = 1.000
==== e(  10) =    22.76387 eV ==== 
     psi = 0.247*[#  11]+0.247*[#  12]+0.247*[#  13]+0.060*[#   5]+0.060*[#   8]+
          +0.045*[#   6]+0.045*[#   7]+0.045*[#   9]+
    |psi|^2 = 0.997
==== e(  11) =    24.37986 eV ==== 
     psi = 0.386*[#  10]+0.140*[#  11]+0.140*[#  12]+0.140*[#  13]+0.062*[#   6]+
          +0.062*[#   7]+0.062*[#   9]+
    |psi|^2 = 0.993
==== e(  12) =    31.22648 eV ==== 
     psi = 0.266*[#  11]+0.266*[#  12]+0.266*[#  13]+0.022*[#   5]+0.022*[#   8]+
          +0.005*[#   6]+0.005*[#   7]+0.005*[#   9]+
    |psi|^2 = 0.861
==== e(  13) =    31.92744 eV ==== 
     psi = 0.515*[#  10]+0.138*[#  11]+0.138*[#  12]+0.138*[#  13]+0.010*[#   1]+
          +0.007*[#   5]+0.007*[#   8]+0.003*[#   6]+0.003*[#   7]+0.003*[#   9]+
    |psi|^2 = 0.963
==== e(  14) =    44.80169 eV ==== 
     psi = 0.037*[#  11]+0.037*[#  12]+0.037*[#  13]+
    |psi|^2 = 0.112
==== e(  15) =    47.57944 eV ==== 
     psi = 0.004*[#  10]+
    |psi|^2 = 0.006
==== e(  16) =    54.22215 eV ==== 
     psi = 0.008*[#  11]+0.008*[#  12]+0.008*[#  13]+
    |psi|^2 = 0.026
==== e(  17) =    56.51297 eV ==== 
     psi = 0.024*[#  10]+0.004*[#  11]+0.004*[#  12]+0.004*[#  13]+
    |psi|^2 = 0.035
==== e(  18) =    58.74908 eV ==== 
     psi = 
    |psi|^2 = 0.001
==== e(  19) =    63.17856 eV ==== 
     psi = 0.001*[#  10]+
    |psi|^2 = 0.003
==== e(  20) =    68.36465 eV ==== 
     psi = 0.003*[#  11]+0.003*[#  12]+0.003*[#  13]+
    |psi|^2 = 0.008
==== e(  21) =    70.03128 eV ==== 
     psi = 
    |psi|^2 = 0.001
==== e(  22) =    75.54665 eV ==== 
     psi = 
    |psi|^2 = 0.001
==== e(  23) =    76.60755 eV ==== 
     psi = 0.001*[#  10]+
    |psi|^2 = 0.001
==== e(  24) =    78.75443 eV ==== 
     psi = 
    |psi|^2 = 0.000

 k =  -0.7071067812  0.2357022604  0.0000000000
==== e(   1) =   -85.50988 eV ==== 
     psi = 0.993*[#   1]+0.007*[#  10]+
    |psi|^2 = 1.000
==== e(   2) =   -45.99888 eV ==== 
     psi = 0.332*[#   2]+0.332*[#   3]+0.332*[#   4]+0.001*[#  11]+0.001*[#  12]+
          +0.001*[#  13]+
    |psi|^2 = 1.000
==== e(   3) =   -45.93627 eV ==== 
     psi = 0.333*[#   2]+0.333*[#   3]+0.333*[#   4]+
    |psi|^2 = 1.000
==== e(   4) =   -45.90602 eV ==== 
     psi = 0.333*[#   2]+0.333*[#   3]+0.333*[#   4]+
    |psi|^2 = 1.000
==== e(   5) =    13.88284 eV ==== 
     psi = 0.428*[#   5]+0.428*[#   8]+0.035*[#  11]+0.035*[#  12]+0.035*[#  13]+
          +0.032*[#  10]+
    |psi|^2 = 0.993
==== e(   6) =    14.33918 eV ==== 
     psi = 0.305*[#   6]+0.305*[#   7]+0.305*[#   9]+0.027*[#  11]+0.027*[#  12]+
          +0.027*[#  13]+
    |psi|^2 = 0.994
==== e(   7) =    15.86727 eV ==== 
     psi = 0.275*[#   6]+0.275*[#   7]+0.275*[#   9]+0.058*[#  11]+0.058*[#  12]+
          +0.058*[#  13]+
    |psi|^2 = 0.999
==== e(   8) =    16.95338 eV ==== 
     psi = 0.491*[#   5]+0.491*[#   8]+0.010*[#  10]+0.002*[#  11]+0.002*[#  12]+
          +0.002*[#  13]+
    |psi|^2 = 0.999
==== e(   9) =    17.70761 eV ==== 
     psi = 0.333*[#   6]+0.333*[#   7]+0.333*[#   9]+
    |psi|^2 = 1.000
==== e(  10) =    23.17669 eV ==== 
     psi = 0.274*[#  11]+0.274*[#  12]+0.274*[#  13]+0.058*[#   6]+0.058*[#   7]+
          +0.058*[#   9]+
    |psi|^2 = 0.998
==== e(  11) =    27.39999 eV ==== 
     psi = 0.399*[#  10]+0.133*[#  11]+0.133*[#  12]+0.133*[#  13]+0.067*[#   5]+
          +0.067*[#   8]+0.003*[#   1]+
    |psi|^2 = 0.934
==== e(  12) =    28.12521 eV ==== 
     psi = 0.301*[#  11]+0.301*[#  12]+0.301*[#  13]+0.028*[#   6]+0.028*[#   7]+
          +0.028*[#   9]+
    |psi|^2 = 0.987
==== e(  13) =    29.71378 eV ==== 
     psi = 0.511*[#  10]+0.145*[#  11]+0.145*[#  12]+0.145*[#  13]+0.013*[#   5]+
          +0.013*[#   8]+0.004*[#   1]+
    |psi|^2 = 0.975
==== e(  14) =    43.28603 eV ==== 
     psi = 0.004*[#  11]+0.004*[#  12]+0.004*[#  13]+
    |psi|^2 = 0.013
==== e(  15) =    46.84139 eV ==== 
     psi = 0.028*[#  10]+0.015*[#  11]+0.015*[#  12]+0.015*[#  13]+
    |psi|^2 = 0.073
==== e(  16) =    53.09872 eV ==== 
     psi = 
    |psi|^2 = 0.001
==== e(  17) =    58.94642 eV ==== 
     psi = 0.011*[#  10]+0.004*[#  11]+0.004*[#  12]+0.004*[#  13]+
    |psi|^2 = 0.021
==== e(  18) =    65.43546 eV ==== 
     psi = 
    |psi|^2 = 0.001
==== e(  19) =    68.28099 eV ==== 
     psi = 
    |psi|^2 = 0.000
==== e(  20) =    68.74347 eV ==== 
     psi = 
    |psi|^2 = 0.000
==== e(  21) =    72.25434 eV ==== 
     psi = 
    |psi|^2 = 0.001
==== e(  22) =    73.17026 eV ==== 
     psi = 0.002*[#  11]+0.002*[#  12]+0.002*[#  13]+
    |psi|^2 = 0.005
==== e(  23) =    73.99506 eV ==== 
     psi = 
    |psi|^2 = 0.000
==== e(  24) =    77.48674 eV ==== 
     psi = 
    |psi|^2 = 0.000

 k =   0.0000000000  0.0000000000  0.0000000000
==== e(   1) =   -85.55450 eV ==== 
     psi = 0.976*[#   1]+0.024*[#  10]+
    |psi|^2 = 1.000
==== e(   2) =   -45.82277 eV ==== 
     psi = 0.330*[#   2]+0.330*[#   3]+0.330*[#   4]+0.003*[#  11]+0.003*[#  12]+
          +0.003*[#  13]+
    |psi|^2 = 1.000
==== e(   3) =   -45.82277 eV ==== 
     psi = 0.330*[#   2]+0.330*[#   3]+0.330*[#   4]+0.003*[#  11]+0.003*[#  12]+
          +0.003*[#  13]+
    |psi|^2 = 1.000
==== e(   4) =   -45.82277 eV ==== 
     psi = 0.330*[#   2]+0.330*[#   3]+0.330*[#   4]+0.003*[#  11]+0.003*[#  12]+
          +0.003*[#  13]+
    |psi|^2 = 1.000
==== e(   5) =     8.66341 eV ==== 
     psi = 0.976*[#  10]+0.024*[#   1]+
    |psi|^2 = 1.000
==== e(   6) =    15.68334 eV ==== 
     psi = 0.332*[#   6]+0.332*[#   7]+0.332*[#   9]+
    |psi|^2 = 0.997
==== e(   7) =    15.68334 eV ==== 
     psi = 0.332*[#   6]+0.332*[#   7]+0.332*[#   9]+
    |psi|^2 = 0.997
==== e(   8) =    15.68334 eV ==== 
     psi = 0.332*[#   6]+0.332*[#   7]+0.332*[#   9]+
    |psi|^2 = 0.997
==== e(   9) =    16.77849 eV ==== 
     psi = 0.500*[#   5]+0.500*[#   8]+
    |psi|^2 = 0.999
==== e(  10) =    16.77849 eV ==== 
     psi = 0.500*[#   5]+0.500*[#   8]+
    |psi|^2 = 0.999
==== e(  11) =    41.16665 eV ==== 
     psi = 
    |psi|^2 = 0.000
==== e(  12) =    45.14912 eV ==== 
     psi = 0.218*[#  11]+0.218*[#  12]+0.218*[#  13]+0.002*[#   2]+0.002*[#   3]+
          +0.002*[#   4]+
    |psi|^2 = 0.661
==== e(  13) =    45.14912 eV ==== 
     psi = 0.218*[#  11]+0.218*[#  12]+0.218*[#  13]+0.002*[#   2]+0.002*[#   3]+
          +0.002*[#   4]+
    |psi|^2 = 0.661
==== e(  14) =    45.14912 eV ==== 
     psi = 0.218*[#  11]+0.218*[#  12]+0.218*[#  13]+0.002*[#   2]+0.002*[#   3]+
          +0.002*[#   4]+
    |psi|^2 = 0.661
==== e(  15) =    47.81232 eV ==== 
     psi = 0.001*[#   6]+0.001*[#   7]+0.001*[#   9]+
    |psi|^2 = 0.003
==== e(  16) =    47.81232 eV ==== 
     psi = 0.001*[#   6]+0.001*[#   7]+0.001*[#   9]+
    |psi|^2 = 0.003
==== e(  17) =    47.81232 eV ==== 
     psi = 0.001*[#   6]+0.001*[#   7]+0.001*[#   9]+
    |psi|^2 = 0.003
==== e(  18) =    51.11603 eV ==== 
     psi = 
    |psi|^2 = 0.000
==== e(  19) =    57.50690 eV ==== 
     psi = 0.111*[#  11]+0.111*[#  12]+0.111*[#  13]+0.001*[#   2]+0.001*[#   3]+
          +0.001*[#   4]+
    |psi|^2 = 0.337
==== e(  20) =    57.50690 eV ==== 
     psi = 0.111*[#  11]+0.111*[#  12]+0.111*[#  13]+0.001*[#   2]+0.001*[#   3]+
          +0.001*[#   4]+
    |psi|^2 = 0.337
==== e(  21) =    57.50690 eV ==== 
     psi = 0.111*[#  11]+0.111*[#  12]+0.111*[#  13]+0.001*[#   2]+0.001*[#   3]+
          +0.001*[#   4]+
    |psi|^2 = 0.337
==== e(  22) =    59.34083 eV ==== 
     psi = 
    |psi|^2 = 0.001
==== e(  23) =    59.34083 eV ==== 
     psi = 
    |psi|^2 = 0.001
==== e(  24) =    77.24911 eV ==== 
     psi = 
    |psi|^2 = 0.000

 k =   0.1178511302  0.1178511302 -0.1178511302
==== e(   1) =   -85.54612 eV ==== 
     psi = 0.944*[#   1]+0.018*[#  11]+0.018*[#  12]+0.018*[#  13]+0.002*[#  10]+
    |psi|^2 = 1.000
==== e(   2) =   -45.87792 eV ==== 
     psi = 0.332*[#   2]+0.332*[#   3]+0.332*[#   4]+0.003*[#  10]+
    |psi|^2 = 1.000
==== e(   3) =   -45.83071 eV ==== 
     psi = 0.330*[#   2]+0.330*[#   3]+0.330*[#   4]+0.003*[#  11]+0.003*[#  12]+
          +0.003*[#  13]+
    |psi|^2 = 1.000
==== e(   4) =   -45.83071 eV ==== 
     psi = 0.330*[#   2]+0.330*[#   3]+0.330*[#   4]+0.003*[#  11]+0.003*[#  12]+
          +0.003*[#  13]+
    |psi|^2 = 1.000
==== e(   5) =     9.72360 eV ==== 
     psi = 0.662*[#  10]+0.100*[#  11]+0.100*[#  12]+0.100*[#  13]+0.029*[#   1]+
          +0.003*[#   6]+0.003*[#   7]+0.003*[#   9]+
    |psi|^2 = 1.000
==== e(   6) =    15.43624 eV ==== 
     psi = 0.324*[#   6]+0.324*[#   7]+0.324*[#   9]+0.008*[#  11]+0.008*[#  12]+
          +0.008*[#  13]+
    |psi|^2 = 0.996
==== e(   7) =    15.86272 eV ==== 
     psi = 0.308*[#   6]+0.308*[#   7]+0.308*[#   9]+0.036*[#   5]+0.036*[#   8]+
    |psi|^2 = 0.997
==== e(   8) =    15.86272 eV ==== 
     psi = 0.308*[#   6]+0.308*[#   7]+0.308*[#   9]+0.036*[#   5]+0.036*[#   8]+
    |psi|^2 = 0.997
==== e(   9) =    16.73770 eV ==== 
     psi = 0.463*[#   5]+0.463*[#   8]+0.024*[#   6]+0.024*[#   7]+0.024*[#   9]+
    |psi|^2 = 0.999
==== e(  10) =    16.73770 eV ==== 
     psi = 0.463*[#   5]+0.463*[#   8]+0.024*[#   6]+0.024*[#   7]+0.024*[#   9]+
    |psi|^2 = 0.999
==== e(  11) =    36.32363 eV ==== 
     psi = 0.243*[#  10]+0.153*[#  11]+0.153*[#  12]+0.153*[#  13]+0.020*[#   1]+
          +0.006*[#   6]+0.006*[#   7]+0.006*[#   9]+
    |psi|^2 = 0.742
==== e(  12) =    41.96271 eV ==== 
     psi = 0.028*[#  10]+0.017*[#  11]+0.017*[#  12]+0.017*[#  13]+0.002*[#   1]+
    |psi|^2 = 0.081
==== e(  13) =    43.67510 eV ==== 
     psi = 0.207*[#  11]+0.207*[#  12]+0.207*[#  13]+0.002*[#   2]+0.002*[#   3]+
          +0.002*[#   4]+0.001*[#   6]+0.001*[#   7]+0.001*[#   9]+
    |psi|^2 = 0.630
==== e(  14) =    43.67510 eV ==== 
     psi = 0.207*[#  11]+0.207*[#  12]+0.207*[#  13]+0.002*[#   2]+0.002*[#   3]+
          +0.002*[#   4]+0.001*[#   6]+0.001*[#   7]+0.001*[#   9]+
    |psi|^2 = 0.630
==== e(  15) =    49.19085 eV ==== 
     psi = 0.027*[#  10]+0.017*[#  11]+0.017*[#  12]+0.017*[#  13]+0.002*[#   1]+
    |psi|^2 = 0.081
==== e(  16) =    49.71601 eV ==== 
     psi = 0.004*[#  11]+0.004*[#  12]+0.004*[#  13]+
    |psi|^2 = 0.014
==== e(  17) =    49.71601 eV ==== 
     psi = 0.004*[#  11]+0.004*[#  12]+0.004*[#  13]+
    |psi|^2 = 0.014
==== e(  18) =    53.33969 eV ==== 
     psi = 0.106*[#  11]+0.106*[#  12]+0.106*[#  13]+
    |psi|^2 = 0.321
==== e(  19) =    53.33969 eV ==== 
     psi = 0.106*[#  11]+0.106*[#  12]+0.106*[#  13]+
    |psi|^2 = 0.321
==== e(  20) =    58.08136 eV ==== 
     psi = 0.024*[#  10]+0.014*[#  11]+0.014*[#  12]+0.014*[#  13]+0.002*[#   1]+
    |psi|^2 = 0.068
==== e(  21) =    59.54685 eV ==== 
     psi = 0.011*[#  10]+0.006*[#  11]+0.006*[#  12]+0.006*[#  13]+
    |psi|^2 = 0.031
==== e(  22) =    66.11770 eV ==== 
     psi = 0.012*[#  11]+0.012*[#  12]+0.012*[#  13]+
    |psi|^2 = 0.037
==== e(  23) =    66.11770 eV ==== 
     psi = 0.012*[#  11]+0.012*[#  12]+0.012*[#  13]+
    |psi|^2 = 0.037
==== e(  24) =    80.28631 eV ==== 
     psi = 
    |psi|^2 = 0.000

 k =   0.2357022604  0.2357022604 -0.2357022604
==== e(   1) =   -85.52934 eV ==== 
     psi = 0.967*[#   1]+0.011*[#  11]+0.011*[#  12]+0.011*[#  13]+
    |psi|^2 = 1.000
==== e(   2) =   -45.98744 eV ==== 
     psi = 0.331*[#   2]+0.331*[#   3]+0.331*[#   4]+0.002*[#  11]+0.002*[#  12]+
          +0.002*[#  13]+0.001*[#  10]+
    |psi|^2 = 1.000
==== e(   3) =   -45.84655 eV ==== 
     psi = 0.331*[#   2]+0.331*[#   3]+0.331*[#   4]+0.002*[#  11]+0.002*[#  12]+
          +0.002*[#  13]+
    |psi|^2 = 1.000
==== e(   4) =   -45.84655 eV ==== 
     psi = 0.331*[#   2]+0.331*[#   3]+0.331*[#   4]+0.002*[#  11]+0.002*[#  12]+
          +0.002*[#  13]+
    |psi|^2 = 1.000
==== e(   5) =    12.18896 eV ==== 
     psi = 0.405*[#  10]+0.110*[#  11]+0.110*[#  12]+0.110*[#  13]+0.083*[#   6]+
          +0.083*[#   7]+0.083*[#   9]+0.011*[#   1]+0.001*[#   2]+0.001*[#   3]+
          +0.001*[#   4]+
    |psi|^2 = 0.998
==== e(   6) =    15.54234 eV ==== 
     psi = 0.219*[#   6]+0.219*[#   7]+0.219*[#   9]+0.106*[#  11]+0.106*[#  12]+
          +0.106*[#  13]+0.013*[#  10]+0.007*[#   1]+
    |psi|^2 = 0.997
==== e(   7) =    15.78427 eV ==== 
     psi = 0.245*[#   5]+0.245*[#   8]+0.168*[#   6]+0.168*[#   7]+0.168*[#   9]+
    |psi|^2 = 0.996
==== e(   8) =    15.78427 eV ==== 
     psi = 0.245*[#   5]+0.245*[#   8]+0.168*[#   6]+0.168*[#   7]+0.168*[#   9]+
    |psi|^2 = 0.996
==== e(   9) =    17.16058 eV ==== 
     psi = 0.254*[#   5]+0.254*[#   8]+0.163*[#   6]+0.163*[#   7]+0.163*[#   9]+
    |psi|^2 = 0.999
==== e(  10) =    17.16058 eV ==== 
     psi = 0.254*[#   5]+0.254*[#   8]+0.163*[#   6]+0.163*[#   7]+0.163*[#   9]+
    |psi|^2 = 0.999
==== e(  11) =    28.28568 eV ==== 
     psi = 0.550*[#  10]+0.101*[#  11]+0.101*[#  12]+0.101*[#  13]+0.031*[#   6]+
          +0.031*[#   7]+0.031*[#   9]+0.014*[#   1]+
    |psi|^2 = 0.960
==== e(  12) =    40.53059 eV ==== 
     psi = 
    |psi|^2 = 0.001
==== e(  13) =    42.57093 eV ==== 
     psi = 0.249*[#  11]+0.249*[#  12]+0.249*[#  13]+0.002*[#   2]+0.002*[#   3]+
          +0.002*[#   4]+0.001*[#   6]+0.001*[#   7]+0.001*[#   9]+
    |psi|^2 = 0.757
==== e(  14) =    42.57093 eV ==== 
     psi = 0.249*[#  11]+0.249*[#  12]+0.249*[#  13]+0.002*[#   2]+0.002*[#   3]+
          +0.002*[#   4]+0.001*[#   6]+0.001*[#   7]+0.001*[#   9]+
    |psi|^2 = 0.757
==== e(  15) =    46.64883 eV ==== 
     psi = 0.044*[#  11]+0.044*[#  12]+0.044*[#  13]+0.001*[#   5]+0.001*[#   8]+
    |psi|^2 = 0.136
==== e(  16) =    46.64883 eV ==== 
     psi = 0.044*[#  11]+0.044*[#  12]+0.044*[#  13]+0.001*[#   5]+0.001*[#   8]+
    |psi|^2 = 0.136
==== e(  17) =    50.40219 eV ==== 
     psi = 0.025*[#  10]+0.004*[#  11]+0.004*[#  12]+0.004*[#  13]+
    |psi|^2 = 0.037
==== e(  18) =    57.88194 eV ==== 
     psi = 0.031*[#  11]+0.031*[#  12]+0.031*[#  13]+
    |psi|^2 = 0.095
==== e(  19) =    57.88194 eV ==== 
     psi = 0.031*[#  11]+0.031*[#  12]+0.031*[#  13]+
    |psi|^2 = 0.095
==== e(  20) =    62.26888 eV ==== 
     psi = 0.004*[#  10]+
    |psi|^2 = 0.006
==== e(  21) =    71.67173 eV ==== 
     psi = 
    |psi|^2 = 0.000
==== e(  22) =    74.56630 eV ==== 
     psi = 0.005*[#  11]+0.005*[#  12]+0.005*[#  13]+
    |psi|^2 = 0.016
==== e(  23) =    74.56630 eV ==== 
     psi = 0.005*[#  11]+0.005*[#  12]+0.005*[#  13]+
    |psi|^2 = 0.016
==== e(  24) =    75.69662 eV ==== 
     psi = 
    |psi|^2 = 0.000

 k =  -0.3535533906 -0.3535533906  0.3535533906
==== e(   1) =   -85.52095 eV ==== 
     psi = 0.999*[#   1]+
    |psi|^2 = 1.000
==== e(   2) =   -46.04181 eV ==== 
     psi = 0.330*[#   2]+0.330*[#   3]+0.330*[#   4]+0.004*[#  11]+0.004*[#  12]+
          +0.004*[#  13]+
    |psi|^2 = 1.000
==== e(   3) =   -45.85445 eV ==== 
     psi = 0.331*[#   2]+0.331*[#   3]+0.331*[#   4]+0.002*[#  11]+0.002*[#  12]+
          +0.002*[#  13]+
    |psi|^2 = 1.000
==== e(   4) =   -45.85445 eV ==== 
     psi = 0.331*[#   2]+0.331*[#   3]+0.331*[#   4]+0.002*[#  11]+0.002*[#  12]+
          +0.002*[#  13]+
    |psi|^2 = 1.000
==== e(   5) =    13.10037 eV ==== 
     psi = 0.268*[#  10]+0.242*[#   6]+0.242*[#   7]+0.242*[#   9]+
    |psi|^2 = 0.995
==== e(   6) =    15.63407 eV ==== 
     psi = 0.297*[#   5]+0.297*[#   8]+0.134*[#   6]+0.134*[#   7]+0.134*[#   9]+
    |psi|^2 = 0.996
==== e(   7) =    15.63407 eV ==== 
     psi = 0.297*[#   5]+0.297*[#   8]+0.134*[#   6]+0.134*[#   7]+0.134*[#   9]+
    |psi|^2 = 0.996
==== e(   8) =    17.40444 eV ==== 
     psi = 0.330*[#  11]+0.330*[#  12]+0.330*[#  13]+0.004*[#   2]+0.004*[#   3]+
          +0.004*[#   4]+
    |psi|^2 = 0.999
==== e(   9) =    17.52056 eV ==== 
     psi = 0.202*[#   5]+0.202*[#   8]+0.199*[#   6]+0.199*[#   7]+0.199*[#   9]+
    |psi|^2 = 1.000
==== e(  10) =    17.52056 eV ==== 
     psi = 0.202*[#   5]+0.202*[#   8]+0.199*[#   6]+0.199*[#   7]+0.199*[#   9]+
    |psi|^2 = 1.000
==== e(  11) =    23.56599 eV ==== 
     psi = 0.717*[#  10]+0.091*[#   6]+0.091*[#   7]+0.091*[#   9]+
    |psi|^2 = 0.990
==== e(  12) =    39.71177 eV ==== 
     psi = 
    |psi|^2 = 0.000
==== e(  13) =    42.30788 eV ==== 
     psi = 0.308*[#  11]+0.308*[#  12]+0.308*[#  13]+0.002*[#   2]+0.002*[#   3]+
          +0.002*[#   4]+
    |psi|^2 = 0.930
==== e(  14) =    42.30788 eV ==== 
     psi = 0.308*[#  11]+0.308*[#  12]+0.308*[#  13]+0.002*[#   2]+0.002*[#   3]+
          +0.002*[#   4]+
    |psi|^2 = 0.930
==== e(  15) =    44.95823 eV ==== 
     psi = 0.001*[#   5]+0.001*[#   8]+
    |psi|^2 = 0.004
==== e(  16) =    44.95823 eV ==== 
     psi = 0.001*[#   5]+0.001*[#   8]+
    |psi|^2 = 0.004
==== e(  17) =    51.34783 eV ==== 
     psi = 0.013*[#  10]+
    |psi|^2 = 0.013
==== e(  18) =    64.01912 eV ==== 
     psi = 0.022*[#  11]+0.022*[#  12]+0.022*[#  13]+
    |psi|^2 = 0.066
==== e(  19) =    64.01912 eV ==== 
     psi = 0.022*[#  11]+0.022*[#  12]+0.022*[#  13]+
    |psi|^2 = 0.066
==== e(  20) =    66.07436 eV ==== 
     psi = 
    |psi|^2 = 0.000
==== e(  21) =    67.67600 eV ==== 
     psi = 
    |psi|^2 = 0.000
==== e(  22) =    67.67600 eV ==== 
     psi = 
    |psi|^2 = 0.000
==== e(  23) =    74.72643 eV ==== 
     psi = 0.001*[#  10]+
    |psi|^2 = 0.002
==== e(  24) =    82.40940 eV ==== 
     psi = 0.001*[#  11]+0.001*[#  12]+0.001*[#  13]+
    |psi|^2 = 0.004

 k =   0.2357022604  0.0000000000  0.0000000000
==== e(   1) =   -85.54333 eV ==== 
     psi = 0.934*[#   1]+0.022*[#  11]+0.022*[#  12]+0.022*[#  13]+
    |psi|^2 = 1.000
==== e(   2) =   -45.87606 eV ==== 
     psi = 0.332*[#   2]+0.332*[#   3]+0.332*[#   4]+0.005*[#  10]+
    |psi|^2 = 1.000
==== e(   3) =   -45.84332 eV ==== 
     psi = 0.331*[#   2]+0.331*[#   3]+0.331*[#   4]+0.002*[#  11]+0.002*[#  12]+
          +0.002*[#  13]+
    |psi|^2 = 1.000
==== e(   4) =   -45.84332 eV ==== 
     psi = 0.331*[#   2]+0.331*[#   3]+0.331*[#   4]+0.002*[#  11]+0.002*[#  12]+
          +0.002*[#  13]+
    |psi|^2 = 1.000
==== e(   5) =    10.06637 eV ==== 
     psi = 0.588*[#  10]+0.123*[#  11]+0.123*[#  12]+0.123*[#  13]+0.030*[#   1]+
          +0.005*[#   5]+0.005*[#   8]+
    |psi|^2 = 1.000
==== e(   6) =    15.19233 eV ==== 
     psi = 0.331*[#   6]+0.331*[#   7]+0.331*[#   9]+
    |psi|^2 = 0.992
==== e(   7) =    16.08413 eV ==== 
     psi = 0.329*[#   6]+0.329*[#   7]+0.329*[#   9]+0.003*[#  11]+0.003*[#  12]+
          +0.003*[#  13]+
    |psi|^2 = 0.998
==== e(   8) =    16.08413 eV ==== 
     psi = 0.329*[#   6]+0.329*[#   7]+0.329*[#   9]+0.003*[#  11]+0.003*[#  12]+
          +0.003*[#  13]+
    |psi|^2 = 0.998
==== e(   9) =    16.35553 eV ==== 
     psi = 0.493*[#   5]+0.493*[#   8]+0.005*[#  10]+0.002*[#  11]+0.002*[#  12]+
          +0.002*[#  13]+
    |psi|^2 = 0.997
==== e(  10) =    16.95504 eV ==== 
     psi = 0.500*[#   5]+0.500*[#   8]+
    |psi|^2 = 1.000
==== e(  11) =    39.35709 eV ==== 
     psi = 0.002*[#   6]+0.002*[#   7]+0.002*[#   9]+
    |psi|^2 = 0.007
==== e(  12) =    39.75875 eV ==== 
     psi = 0.285*[#  11]+0.285*[#  12]+0.285*[#  13]+0.004*[#   6]+0.004*[#   7]+
          +0.004*[#   9]+0.002*[#   2]+0.002*[#   3]+0.002*[#   4]+
    |psi|^2 = 0.872
==== e(  13) =    39.75875 eV ==== 
     psi = 0.285*[#  11]+0.285*[#  12]+0.285*[#  13]+0.004*[#   6]+0.004*[#   7]+
          +0.004*[#   9]+0.002*[#   2]+0.002*[#   3]+0.002*[#   4]+
    |psi|^2 = 0.872
==== e(  14) =    41.06517 eV ==== 
     psi = 0.043*[#  10]+0.020*[#  11]+0.020*[#  12]+0.020*[#  13]+0.004*[#   1]+
          +0.001*[#   5]+0.001*[#   8]+
    |psi|^2 = 0.109
==== e(  15) =    46.85507 eV ==== 
     psi = 0.348*[#  10]+0.162*[#  11]+0.162*[#  12]+0.162*[#  13]+0.031*[#   1]+
    |psi|^2 = 0.869
==== e(  16) =    52.70815 eV ==== 
     psi = 
    |psi|^2 = 0.001
==== e(  17) =    53.21614 eV ==== 
     psi = 
    |psi|^2 = 0.000
==== e(  18) =    53.21614 eV ==== 
     psi = 
    |psi|^2 = 0.000
==== e(  19) =    57.31713 eV ==== 
     psi = 0.004*[#  10]+0.002*[#  11]+0.002*[#  12]+0.002*[#  13]+
    |psi|^2 = 0.010
==== e(  20) =    59.70302 eV ==== 
     psi = 
    |psi|^2 = 0.000
==== e(  21) =    60.65511 eV ==== 
     psi = 0.042*[#  11]+0.042*[#  12]+0.042*[#  13]+
    |psi|^2 = 0.127
==== e(  22) =    60.65511 eV ==== 
     psi = 0.042*[#  11]+0.042*[#  12]+0.042*[#  13]+
    |psi|^2 = 0.127
==== e(  23) =    68.60908 eV ==== 
     psi = 0.006*[#  10]+0.002*[#  11]+0.002*[#  12]+0.002*[#  13]+
    |psi|^2 = 0.013
==== e(  24) =    82.01513 eV ==== 
     psi = 
    |psi|^2 = 0.000

 k =   0.3535533906  0.1178511302 -0.1178511302
==== e(   1) =   -85.52937 eV ==== 
     psi = 0.948*[#   1]+0.017*[#  11]+0.017*[#  12]+0.017*[#  13]+0.002*[#  10]+
    |psi|^2 = 1.000
==== e(   2) =   -45.95637 eV ==== 
     psi = 0.332*[#   2]+0.332*[#   3]+0.332*[#   4]+0.003*[#  10]+
    |psi|^2 = 1.000
==== e(   3) =   -45.86195 eV ==== 
     psi = 0.332*[#   2]+0.332*[#   3]+0.332*[#   4]+0.001*[#  11]+0.001*[#  12]+
          +0.001*[#  13]+
    |psi|^2 = 1.000
==== e(   4) =   -45.86150 eV ==== 
     psi = 0.332*[#   2]+0.332*[#   3]+0.332*[#   4]+0.002*[#  11]+0.002*[#  12]+
          +0.002*[#  13]+
    |psi|^2 = 1.000
==== e(   5) =    12.11205 eV ==== 
     psi = 0.365*[#  10]+0.160*[#  11]+0.160*[#  12]+0.160*[#  13]+0.033*[#   5]+
          +0.033*[#   8]+0.022*[#   6]+0.022*[#   7]+0.022*[#   9]+0.019*[#   1]+
          +0.001*[#   2]+0.001*[#   3]+0.001*[#   4]+
    |psi|^2 = 0.999
==== e(   6) =    14.84254 eV ==== 
     psi = 0.305*[#   6]+0.305*[#   7]+0.305*[#   9]+0.019*[#  11]+0.019*[#  12]+
          +0.019*[#  13]+0.010*[#   5]+0.010*[#   8]+
    |psi|^2 = 0.994
==== e(   7) =    15.73167 eV ==== 
     psi = 0.302*[#   5]+0.302*[#   8]+0.122*[#   6]+0.122*[#   7]+0.122*[#   9]+
          +0.009*[#  10]+0.005*[#  11]+0.005*[#  12]+0.005*[#  13]+
    |psi|^2 = 0.994
==== e(   8) =    16.25156 eV ==== 
     psi = 0.219*[#   6]+0.219*[#   7]+0.219*[#   9]+0.166*[#   5]+0.166*[#   8]+
          +0.004*[#  11]+0.004*[#  12]+0.004*[#  13]+
    |psi|^2 = 0.998
==== e(   9) =    17.14423 eV ==== 
     psi = 0.199*[#   6]+0.199*[#   7]+0.199*[#   9]+0.149*[#   5]+0.149*[#   8]+
          +0.026*[#  11]+0.026*[#  12]+0.026*[#  13]+0.021*[#  10]+0.002*[#   1]+
    |psi|^2 = 0.999
==== e(  10) =    17.28664 eV ==== 
     psi = 0.333*[#   5]+0.333*[#   8]+0.111*[#   6]+0.111*[#   7]+0.111*[#   9]+
    |psi|^2 = 1.000
==== e(  11) =    31.46762 eV ==== 
     psi = 0.243*[#  10]+0.210*[#  11]+0.210*[#  12]+0.210*[#  13]+0.016*[#   6]+
          +0.016*[#   7]+0.016*[#   9]+0.008*[#   1]+0.001*[#   5]+0.001*[#   8]+
    |psi|^2 = 0.933
==== e(  12) =    37.74739 eV ==== 
     psi = 0.302*[#  11]+0.302*[#  12]+0.302*[#  13]+0.004*[#   6]+0.004*[#   7]+
          +0.004*[#   9]+0.001*[#   2]+0.001*[#   3]+0.001*[#   4]+
    |psi|^2 = 0.923
==== e(  13) =    38.15627 eV ==== 
     psi = 0.030*[#  10]+0.016*[#  11]+0.016*[#  12]+0.016*[#  13]+0.003*[#   5]+
          +0.003*[#   8]+0.002*[#   1]+
    |psi|^2 = 0.089
==== e(  14) =    40.80735 eV ==== 
     psi = 0.221*[#  10]+0.091*[#  11]+0.091*[#  12]+0.091*[#  13]+0.013*[#   1]+
          +0.001*[#   6]+0.001*[#   7]+0.001*[#   9]+
    |psi|^2 = 0.512
==== e(  15) =    47.40356 eV ==== 
     psi = 0.109*[#  11]+0.109*[#  12]+0.109*[#  13]+0.090*[#  10]+0.006*[#   1]+
    |psi|^2 = 0.426
==== e(  16) =    51.60816 eV ==== 
     psi = 0.003*[#  10]+
    |psi|^2 = 0.006
==== e(  17) =    52.92511 eV ==== 
     psi = 0.009*[#  11]+0.009*[#  12]+0.009*[#  13]+
    |psi|^2 = 0.028
==== e(  18) =    56.28984 eV ==== 
     psi = 0.009*[#  10]+0.004*[#  11]+0.004*[#  12]+0.004*[#  13]+
    |psi|^2 = 0.022
==== e(  19) =    61.04322 eV ==== 
     psi = 0.008*[#  11]+0.008*[#  12]+0.008*[#  13]+
    |psi|^2 = 0.024
==== e(  20) =    64.37910 eV ==== 
     psi = 0.004*[#  11]+0.004*[#  12]+0.004*[#  13]+0.001*[#  10]+
    |psi|^2 = 0.014
==== e(  21) =    66.73520 eV ==== 
     psi = 0.001*[#  11]+0.001*[#  12]+0.001*[#  13]+
    |psi|^2 = 0.004
==== e(  22) =    68.21088 eV ==== 
     psi = 0.008*[#  11]+0.008*[#  12]+0.008*[#  13]+
    |psi|^2 = 0.024
==== e(  23) =    74.40761 eV ==== 
     psi = 
    |psi|^2 = 0.001
==== e(  24) =    75.39260 eV ==== 
     psi = 
    |psi|^2 = 0.001

 k =  -0.2357022604 -0.4714045208  0.4714045208
==== e(   1) =   -85.51819 eV ==== 
     psi = 0.985*[#   1]+0.004*[#  11]+0.004*[#  12]+0.004*[#  13]+0.002*[#  10]+
    |psi|^2 = 1.000
==== e(   2) =   -46.01978 eV ==== 
     psi = 0.331*[#   2]+0.331*[#   3]+0.331*[#   4]+0.002*[#  11]+0.002*[#  12]+
          +0.002*[#  13]+
    |psi|^2 = 1.000
==== e(   3) =   -45.88644 eV ==== 
     psi = 0.333*[#   2]+0.333*[#   3]+0.333*[#   4]+
    |psi|^2 = 1.000
==== e(   4) =   -45.86708 eV ==== 
     psi = 0.332*[#   2]+0.332*[#   3]+0.332*[#   4]+0.002*[#  11]+0.002*[#  12]+
          +0.002*[#  13]+
    |psi|^2 = 1.000
==== e(   5) =    13.60486 eV ==== 
     psi = 0.223*[#   6]+0.223*[#   7]+0.223*[#   9]+0.174*[#  10]+0.037*[#  11]+
          +0.037*[#  12]+0.037*[#  13]+0.019*[#   5]+0.019*[#   8]+0.001*[#   1]+
    |psi|^2 = 0.996
==== e(   6) =    15.08101 eV ==== 
     psi = 0.368*[#   5]+0.368*[#   8]+0.056*[#  11]+0.056*[#  12]+0.056*[#  13]+
          +0.029*[#   6]+0.029*[#   7]+0.029*[#   9]+
    |psi|^2 = 0.995
==== e(   7) =    15.70210 eV ==== 
     psi = 0.260*[#   6]+0.260*[#   7]+0.260*[#   9]+0.064*[#  11]+0.064*[#  12]+
          +0.064*[#  13]+0.010*[#  10]+0.006*[#   5]+0.006*[#   8]+
    |psi|^2 = 0.997
==== e(   8) =    16.05561 eV ==== 
     psi = 0.303*[#   5]+0.303*[#   8]+0.128*[#   6]+0.128*[#   7]+0.128*[#   9]+
          +0.003*[#  11]+0.003*[#  12]+0.003*[#  13]+
    |psi|^2 = 0.997
==== e(   9) =    17.54636 eV ==== 
     psi = 0.204*[#   6]+0.204*[#   7]+0.204*[#   9]+0.194*[#   5]+0.194*[#   8]+
    |psi|^2 = 1.000
==== e(  10) =    19.57108 eV ==== 
     psi = 0.163*[#  11]+0.163*[#  12]+0.163*[#  13]+0.097*[#   5]+0.097*[#   8]+
          +0.089*[#   6]+0.089*[#   7]+0.089*[#   9]+0.046*[#  10]+0.001*[#   1]+
          +0.001*[#   2]+0.001*[#   3]+0.001*[#   4]+
    |psi|^2 = 1.000
==== e(  11) =    24.66441 eV ==== 
     psi = 0.493*[#  10]+0.101*[#  11]+0.101*[#  12]+0.101*[#  13]+0.062*[#   6]+
          +0.062*[#   7]+0.062*[#   9]+0.003*[#   5]+0.003*[#   8]+
    |psi|^2 = 0.990
==== e(  12) =    35.37466 eV ==== 
     psi = 0.149*[#  10]+0.139*[#  11]+0.139*[#  12]+0.139*[#  13]+0.007*[#   1]+
          +0.007*[#   5]+0.007*[#   8]+0.001*[#   6]+0.001*[#   7]+0.001*[#   9]+
    |psi|^2 = 0.592
==== e(  13) =    38.04164 eV ==== 
     psi = 0.298*[#  11]+0.298*[#  12]+0.298*[#  13]+0.003*[#   5]+0.003*[#   8]+
          +0.001*[#   2]+0.001*[#   3]+0.001*[#   4]+0.001*[#   6]+0.001*[#   7]+
          +0.001*[#   9]+
    |psi|^2 = 0.909
==== e(  14) =    40.03700 eV ==== 
     psi = 0.099*[#  10]+0.077*[#  11]+0.077*[#  12]+0.077*[#  13]+0.004*[#   1]+
          +0.001*[#   6]+0.001*[#   7]+0.001*[#   9]+
    |psi|^2 = 0.337
==== e(  15) =    50.13167 eV ==== 
     psi = 0.016*[#  11]+0.016*[#  12]+0.016*[#  13]+
    |psi|^2 = 0.049
==== e(  16) =    50.24271 eV ==== 
     psi = 0.002*[#  10]+
    |psi|^2 = 0.003
==== e(  17) =    54.59794 eV ==== 
     psi = 0.019*[#  11]+0.019*[#  12]+0.019*[#  13]+0.009*[#  10]+
    |psi|^2 = 0.066
==== e(  18) =    57.20458 eV ==== 
     psi = 0.010*[#  10]+
    |psi|^2 = 0.011
==== e(  19) =    64.70955 eV ==== 
     psi = 0.012*[#  11]+0.012*[#  12]+0.012*[#  13]+
    |psi|^2 = 0.037
==== e(  20) =    66.01120 eV ==== 
     psi = 0.003*[#  10]+0.002*[#  11]+0.002*[#  12]+0.002*[#  13]+
    |psi|^2 = 0.009
==== e(  21) =    68.38261 eV ==== 
     psi = 
    |psi|^2 = 0.003
==== e(  22) =    72.18210 eV ==== 
     psi = 
    |psi|^2 = 0.001
==== e(  23) =    78.35591 eV ==== 
     psi = 0.001*[#  11]+0.001*[#  12]+0.001*[#  13]+
    |psi|^2 = 0.003
==== e(  24) =    78.87250 eV ==== 
     psi = 
    |psi|^2 = 0.002

 k =  -0.1178511302 -0.3535533906  0.3535533906
==== e(   1) =   -85.52098 eV ==== 
     psi = 0.977*[#   1]+0.007*[#  11]+0.007*[#  12]+0.007*[#  13]+0.002*[#  10]+
    |psi|^2 = 1.000
==== e(   2) =   -46.00227 eV ==== 
     psi = 0.331*[#   2]+0.331*[#   3]+0.331*[#   4]+0.002*[#  11]+0.002*[#  12]+
          +0.002*[#  13]+
    |psi|^2 = 1.000
==== e(   3) =   -45.89343 eV ==== 
     psi = 0.333*[#   2]+0.333*[#   3]+0.333*[#   4]+
    |psi|^2 = 1.000
==== e(   4) =   -45.85452 eV ==== 
     psi = 0.331*[#   2]+0.331*[#   3]+0.331*[#   4]+0.002*[#  11]+0.002*[#  12]+
          +0.002*[#  13]+
    |psi|^2 = 1.000
==== e(   5) =    13.43090 eV ==== 
     psi = 0.223*[#  10]+0.164*[#   6]+0.164*[#   7]+0.164*[#   9]+0.088*[#  11]+
          +0.088*[#  12]+0.088*[#  13]+0.006*[#   5]+0.006*[#   8]+0.004*[#   1]+
    |psi|^2 = 0.998
==== e(   6) =    15.29059 eV ==== 
     psi = 0.277*[#   5]+0.277*[#   8]+0.077*[#  11]+0.077*[#  12]+0.077*[#  13]+
          +0.069*[#   6]+0.069*[#   7]+0.069*[#   9]+0.002*[#   1]+0.001*[#  10]+
    |psi|^2 = 0.996
==== e(   7) =    15.41900 eV ==== 
     psi = 0.251*[#   6]+0.251*[#   7]+0.251*[#   9]+0.073*[#   5]+0.073*[#   8]+
          +0.029*[#  11]+0.029*[#  12]+0.029*[#  13]+0.009*[#  10]+
    |psi|^2 = 0.996
==== e(   8) =    16.04456 eV ==== 
     psi = 0.349*[#   5]+0.349*[#   8]+0.098*[#   6]+0.098*[#   7]+0.098*[#   9]+
          +0.001*[#  11]+0.001*[#  12]+0.001*[#  13]+
    |psi|^2 = 0.997
==== e(   9) =    17.05807 eV ==== 
     psi = 0.235*[#   6]+0.235*[#   7]+0.235*[#   9]+0.147*[#   5]+0.147*[#   8]+
    |psi|^2 = 0.999
==== e(  10) =    18.86696 eV ==== 
     psi = 0.135*[#   5]+0.135*[#   8]+0.134*[#   6]+0.134*[#   7]+0.134*[#   9]+
          +0.082*[#  11]+0.082*[#  12]+0.082*[#  13]+0.076*[#  10]+0.002*[#   1]+
    |psi|^2 = 1.000
==== e(  11) =    26.63260 eV ==== 
     psi = 0.408*[#  10]+0.145*[#  11]+0.145*[#  12]+0.145*[#  13]+0.042*[#   6]+
          +0.042*[#   7]+0.042*[#   9]+0.004*[#   5]+0.004*[#   8]+0.004*[#   1]+
    |psi|^2 = 0.979
==== e(  12) =    33.90805 eV ==== 
     psi = 0.196*[#  10]+0.191*[#  11]+0.191*[#  12]+0.191*[#  13]+0.008*[#   1]+
          +0.006*[#   6]+0.006*[#   7]+0.006*[#   9]+0.005*[#   5]+0.005*[#   8]+
    |psi|^2 = 0.807
==== e(  13) =    40.84610 eV ==== 
     psi = 0.259*[#  11]+0.259*[#  12]+0.259*[#  13]+0.004*[#   5]+0.004*[#   8]+
          +0.002*[#   2]+0.002*[#   3]+0.002*[#   4]+
    |psi|^2 = 0.790
==== e(  14) =    41.09083 eV ==== 
     psi = 0.061*[#  10]+0.033*[#  11]+0.033*[#  12]+0.033*[#  13]+0.002*[#   1]+
    |psi|^2 = 0.163
==== e(  15) =    48.78955 eV ==== 
     psi = 0.031*[#  11]+0.031*[#  12]+0.031*[#  13]+
    |psi|^2 = 0.094
==== e(  16) =    49.04390 eV ==== 
     psi = 0.004*[#  10]+0.002*[#  11]+0.002*[#  12]+0.002*[#  13]+
    |psi|^2 = 0.010
==== e(  17) =    56.56243 eV ==== 
     psi = 0.037*[#  11]+0.037*[#  12]+0.037*[#  13]+
    |psi|^2 = 0.111
[...]
    |psi|^2 = 0.481
==== e(  16) =    60.19004 eV ==== 
     psi = 0.002*[#  11]+0.002*[#  12]+0.002*[#  13]+
    |psi|^2 = 0.005
==== e(  17) =    60.19004 eV ==== 
     psi = 0.002*[#  11]+0.002*[#  12]+0.002*[#  13]+
    |psi|^2 = 0.005
==== e(  18) =    60.77135 eV ==== 
     psi = 
    |psi|^2 = 0.000
==== e(  19) =    62.84890 eV ==== 
     psi = 
    |psi|^2 = 0.000
==== e(  20) =    63.91146 eV ==== 
     psi = 0.002*[#  10]+
    |psi|^2 = 0.002
==== e(  21) =    68.47398 eV ==== 
     psi = 0.006*[#  11]+0.006*[#  12]+0.006*[#  13]+
    |psi|^2 = 0.020
==== e(  22) =    68.47398 eV ==== 
     psi = 0.006*[#  11]+0.006*[#  12]+0.006*[#  13]+
    |psi|^2 = 0.020
==== e(  23) =    75.36391 eV ==== 
     psi = 
    |psi|^2 = 0.001
==== e(  24) =    75.64315 eV ==== 
     psi = 
    |psi|^2 = 0.000

 k =  -0.1178511302 -0.5892556510  0.5892556510
==== e(   1) =   -85.51267 eV ==== 
     psi = 0.985*[#   1]+0.006*[#  10]+0.003*[#  11]+0.003*[#  12]+0.003*[#  13]+
    |psi|^2 = 1.000
==== e(   2) =   -46.00774 eV ==== 
     psi = 0.332*[#   2]+0.332*[#   3]+0.332*[#   4]+0.002*[#  11]+0.002*[#  12]+
          +0.002*[#  13]+
    |psi|^2 = 1.000
==== e(   3) =   -45.91785 eV ==== 
     psi = 0.333*[#   2]+0.333*[#   3]+0.333*[#   4]+
    |psi|^2 = 1.000
==== e(   4) =   -45.89231 eV ==== 
     psi = 0.333*[#   2]+0.333*[#   3]+0.333*[#   4]+
    |psi|^2 = 1.000
==== e(   5) =    13.62220 eV ==== 
     psi = 0.372*[#   5]+0.372*[#   8]+0.092*[#  10]+0.032*[#  11]+0.032*[#  12]+
          +0.032*[#  13]+0.018*[#   6]+0.018*[#   7]+0.018*[#   9]+
    |psi|^2 = 0.988
==== e(   6) =    14.16876 eV ==== 
     psi = 0.297*[#   6]+0.297*[#   7]+0.297*[#   9]+0.020*[#  11]+0.020*[#  12]+
          +0.020*[#  13]+0.019*[#   5]+0.019*[#   8]+
    |psi|^2 = 0.991
==== e(   7) =    16.31317 eV ==== 
     psi = 0.247*[#   6]+0.247*[#   7]+0.247*[#   9]+0.064*[#  11]+0.064*[#  12]+
          +0.064*[#  13]+0.024*[#   5]+0.024*[#   8]+0.018*[#  10]+
    |psi|^2 = 0.999
==== e(   8) =    17.00988 eV ==== 
     psi = 0.355*[#   5]+0.355*[#   8]+0.093*[#   6]+0.093*[#   7]+0.093*[#   9]+
          +0.003*[#  11]+0.003*[#  12]+0.003*[#  13]+
    |psi|^2 = 0.999
==== e(   9) =    17.60741 eV ==== 
     psi = 0.239*[#   6]+0.239*[#   7]+0.239*[#   9]+0.142*[#   5]+0.142*[#   8]+
    |psi|^2 = 1.000
==== e(  10) =    20.34206 eV ==== 
     psi = 0.187*[#  11]+0.187*[#  12]+0.187*[#  13]+0.089*[#  10]+0.082*[#   6]+
          +0.082*[#   7]+0.082*[#   9]+0.049*[#   5]+0.049*[#   8]+0.002*[#   1]+
          +0.001*[#   2]+0.001*[#   3]+0.001*[#   4]+
    |psi|^2 = 0.999
==== e(  11) =    28.40679 eV ==== 
     psi = 0.279*[#  11]+0.279*[#  12]+0.279*[#  13]+0.061*[#  10]+0.018*[#   6]+
          +0.018*[#   7]+0.018*[#   9]+0.012*[#   5]+0.012*[#   8]+
    |psi|^2 = 0.976
==== e(  12) =    29.67269 eV ==== 
     psi = 0.612*[#  10]+0.058*[#  11]+0.058*[#  12]+0.058*[#  13]+0.024*[#   5]+
          +0.024*[#   8]+0.011*[#   1]+0.001*[#   6]+0.001*[#   7]+0.001*[#   9]+
    |psi|^2 = 0.849
==== e(  13) =    34.07149 eV ==== 
     psi = 0.321*[#  11]+0.321*[#  12]+0.321*[#  13]+0.003*[#   5]+0.003*[#   8]+
          +0.001*[#   6]+0.001*[#   7]+0.001*[#   9]+
    |psi|^2 = 0.974
==== e(  14) =    38.89507 eV ==== 
     psi = 0.063*[#  10]+0.004*[#  11]+0.004*[#  12]+0.004*[#  13]+0.002*[#   6]+
          +0.002*[#   7]+0.002*[#   9]+
    |psi|^2 = 0.084
==== e(  15) =    45.48346 eV ==== 
     psi = 0.052*[#  10]+0.015*[#  11]+0.015*[#  12]+0.015*[#  13]+
    |psi|^2 = 0.097
==== e(  16) =    57.03184 eV ==== 
     psi = 0.002*[#  11]+0.002*[#  12]+0.002*[#  13]+
    |psi|^2 = 0.005
==== e(  17) =    58.53379 eV ==== 
     psi = 0.001*[#  10]+
    |psi|^2 = 0.003
==== e(  18) =    65.91014 eV ==== 
     psi = 
    |psi|^2 = 0.002
==== e(  19) =    66.04849 eV ==== 
     psi = 0.004*[#  11]+0.004*[#  12]+0.004*[#  13]+
    |psi|^2 = 0.012
==== e(  20) =    67.69851 eV ==== 
     psi = 0.003*[#  10]+
    |psi|^2 = 0.006
==== e(  21) =    70.22842 eV ==== 
     psi = 
    |psi|^2 = 0.003
==== e(  22) =    73.50772 eV ==== 
     psi = 
    |psi|^2 = 0.001
==== e(  23) =    74.67208 eV ==== 
     psi = 0.001*[#  11]+0.001*[#  12]+0.001*[#  13]+
    |psi|^2 = 0.004
==== e(  24) =    75.43745 eV ==== 
     psi = 0.001*[#  10]+
    |psi|^2 = 0.002

 k =   0.0000000000 -0.4714045208  0.4714045208
==== e(   1) =   -85.51264 eV ==== 
     psi = 0.990*[#   1]+0.005*[#  10]+0.001*[#  11]+0.001*[#  12]+0.001*[#  13]+
    |psi|^2 = 1.000
==== e(   2) =   -45.97127 eV ==== 
     psi = 0.332*[#   2]+0.332*[#   3]+0.332*[#   4]+
    |psi|^2 = 1.000
==== e(   3) =   -45.97031 eV ==== 
     psi = 0.333*[#   2]+0.333*[#   3]+0.333*[#   4]+
    |psi|^2 = 1.000
==== e(   4) =   -45.87740 eV ==== 
     psi = 0.332*[#   2]+0.332*[#   3]+0.332*[#   4]+0.001*[#  11]+0.001*[#  12]+
          +0.001*[#  13]+
    |psi|^2 = 1.000
==== e(   5) =    14.33022 eV ==== 
     psi = 0.241*[#   6]+0.241*[#   7]+0.241*[#   9]+0.088*[#   5]+0.088*[#   8]+
          +0.063*[#  10]+0.010*[#  11]+0.010*[#  12]+0.010*[#  13]+
    |psi|^2 = 0.990
==== e(   6) =    14.48629 eV ==== 
     psi = 0.333*[#   5]+0.333*[#   8]+0.079*[#  11]+0.079*[#  12]+0.079*[#  13]+
          +0.031*[#   6]+0.031*[#   7]+0.031*[#   9]+
    |psi|^2 = 0.996
==== e(   7) =    15.44951 eV ==== 
     psi = 0.277*[#   6]+0.277*[#   7]+0.277*[#   9]+0.056*[#  11]+0.056*[#  12]+
          +0.056*[#  13]+
    |psi|^2 = 0.999
==== e(   8) =    16.66135 eV ==== 
     psi = 0.493*[#   5]+0.493*[#   8]+0.004*[#  11]+0.004*[#  12]+0.004*[#  13]+
    |psi|^2 = 0.999
==== e(   9) =    17.25161 eV ==== 
     psi = 0.333*[#   6]+0.333*[#   7]+0.333*[#   9]+
    |psi|^2 = 0.999
==== e(  10) =    22.57106 eV ==== 
     psi = 0.189*[#  11]+0.189*[#  12]+0.189*[#  13]+0.160*[#  10]+0.059*[#   6]+
          +0.059*[#   7]+0.059*[#   9]+0.046*[#   5]+0.046*[#   8]+
    |psi|^2 = 0.997
==== e(  11) =    25.28499 eV ==== 
     psi = 0.276*[#  11]+0.276*[#  12]+0.276*[#  13]+0.056*[#   6]+0.056*[#   7]+
          +0.056*[#   9]+
    |psi|^2 = 0.996
==== e(  12) =    28.28418 eV ==== 
     psi = 0.693*[#  10]+0.047*[#  11]+0.047*[#  12]+0.047*[#  13]+0.034*[#   5]+
          +0.034*[#   8]+0.008*[#   1]+0.002*[#   6]+0.002*[#   7]+0.002*[#   9]+
    |psi|^2 = 0.913
==== e(  13) =    36.44796 eV ==== 
     psi = 0.307*[#  11]+0.307*[#  12]+0.307*[#  13]+0.007*[#   5]+0.007*[#   8]+
          +0.001*[#   2]+0.001*[#   3]+0.001*[#   4]+
    |psi|^2 = 0.939
==== e(  14) =    39.58366 eV ==== 
     psi = 0.056*[#  10]+0.005*[#  11]+0.005*[#  12]+0.005*[#  13]+0.001*[#   6]+
          +0.001*[#   7]+0.001*[#   9]+
    |psi|^2 = 0.074
==== e(  15) =    53.90296 eV ==== 
     psi = 0.011*[#  10]+0.002*[#  11]+0.002*[#  12]+0.002*[#  13]+
    |psi|^2 = 0.017
==== e(  16) =    53.96913 eV ==== 
     psi = 
    |psi|^2 = 0.001
==== e(  17) =    54.52854 eV ==== 
     psi = 0.001*[#  11]+0.001*[#  12]+0.001*[#  13]+
    |psi|^2 = 0.004
==== e(  18) =    59.07783 eV ==== 
     psi = 0.019*[#  11]+0.019*[#  12]+0.019*[#  13]+
    |psi|^2 = 0.056
==== e(  19) =    60.77640 eV ==== 
     psi = 0.008*[#  10]+
    |psi|^2 = 0.008
==== e(  20) =    67.98377 eV ==== 
     psi = 0.003*[#  10]+
    |psi|^2 = 0.003
==== e(  21) =    68.77411 eV ==== 
     psi = 
    |psi|^2 = 0.001
==== e(  22) =    77.20687 eV ==== 
     psi = 
    |psi|^2 = 0.003
==== e(  23) =    78.72152 eV ==== 
     psi = 
    |psi|^2 = 0.000
==== e(  24) =    82.46358 eV ==== 
     psi = 
    |psi|^2 = 0.000

 k =  -0.7071067812  0.0000000000  0.0000000000
==== e(   1) =   -85.50991 eV ==== 
     psi = 0.993*[#   1]+0.006*[#  10]+
    |psi|^2 = 1.000
==== e(   2) =   -46.03012 eV ==== 
     psi = 0.331*[#   2]+0.331*[#   3]+0.331*[#   4]+0.002*[#  11]+0.002*[#  12]+
          +0.002*[#  13]+
    |psi|^2 = 1.000
==== e(   3) =   -45.90490 eV ==== 
     psi = 0.333*[#   2]+0.333*[#   3]+0.333*[#   4]+
    |psi|^2 = 1.000
==== e(   4) =   -45.90490 eV ==== 
     psi = 0.333*[#   2]+0.333*[#   3]+0.333*[#   4]+
    |psi|^2 = 1.000
==== e(   5) =    13.25225 eV ==== 
     psi = 0.436*[#   5]+0.436*[#   8]+0.110*[#  10]+
    |psi|^2 = 0.982
==== e(   6) =    13.84539 eV ==== 
     psi = 0.328*[#   6]+0.328*[#   7]+0.328*[#   9]+
    |psi|^2 = 0.983
==== e(   7) =    17.50264 eV ==== 
     psi = 0.500*[#   5]+0.500*[#   8]+
    |psi|^2 = 1.000
==== e(   8) =    17.70695 eV ==== 
     psi = 0.333*[#   6]+0.333*[#   7]+0.333*[#   9]+
    |psi|^2 = 1.000
==== e(   9) =    17.70695 eV ==== 
     psi = 0.333*[#   6]+0.333*[#   7]+0.333*[#   9]+
    |psi|^2 = 1.000
==== e(  10) =    20.14409 eV ==== 
     psi = 0.331*[#  11]+0.331*[#  12]+0.331*[#  13]+0.002*[#   2]+0.002*[#   3]+
          +0.002*[#   4]+
    |psi|^2 = 0.999
==== e(  11) =    27.02281 eV ==== 
     psi = 0.744*[#  10]+0.064*[#   5]+0.064*[#   8]+0.006*[#   1]+
    |psi|^2 = 0.878
==== e(  12) =    32.48599 eV ==== 
     psi = 0.328*[#  11]+0.328*[#  12]+0.328*[#  13]+
    |psi|^2 = 0.985
==== e(  13) =    32.48599 eV ==== 
     psi = 0.328*[#  11]+0.328*[#  12]+0.328*[#  13]+
    |psi|^2 = 0.985
==== e(  14) =    37.36014 eV ==== 
     psi = 0.006*[#   6]+0.006*[#   7]+0.006*[#   9]+
    |psi|^2 = 0.017
==== e(  15) =    40.93418 eV ==== 
     psi = 0.137*[#  10]+
    |psi|^2 = 0.138
==== e(  16) =    61.67186 eV ==== 
     psi = 
    |psi|^2 = 0.000
==== e(  17) =    66.50138 eV ==== 
     psi = 
    |psi|^2 = 0.001
==== e(  18) =    68.53452 eV ==== 
     psi = 
    |psi|^2 = 0.000
==== e(  19) =    68.53452 eV ==== 
     psi = 
    |psi|^2 = 0.000
==== e(  20) =    69.01740 eV ==== 
     psi = 0.002*[#  11]+0.002*[#  12]+0.002*[#  13]+
    |psi|^2 = 0.006
==== e(  21) =    69.01740 eV ==== 
     psi = 0.002*[#  11]+0.002*[#  12]+0.002*[#  13]+
    |psi|^2 = 0.006
==== e(  22) =    72.18261 eV ==== 
     psi = 
    |psi|^2 = 0.000
==== e(  23) =    76.99161 eV ==== 
     psi = 0.003*[#  11]+0.003*[#  12]+0.003*[#  13]+
    |psi|^2 = 0.009
==== e(  24) =    76.99161 eV ==== 
     psi = 0.003*[#  11]+0.003*[#  12]+0.003*[#  13]+
    |psi|^2 = 0.009

 k =  -0.2357022604 -0.4714045208  0.7071067812
==== e(   1) =   -85.51822 eV ==== 
     psi = 0.971*[#   1]+0.008*[#  11]+0.008*[#  12]+0.008*[#  13]+0.005*[#  10]+
    |psi|^2 = 1.000
==== e(   2) =   -45.98621 eV ==== 
     psi = 0.332*[#   2]+0.332*[#   3]+0.332*[#   4]+0.001*[#  10]+0.001*[#  11]+
          +0.001*[#  12]+0.001*[#  13]+
    |psi|^2 = 1.000
==== e(   3) =   -45.91305 eV ==== 
     psi = 0.333*[#   2]+0.333*[#   3]+0.333*[#   4]+
    |psi|^2 = 1.000
==== e(   4) =   -45.87334 eV ==== 
     psi = 0.332*[#   2]+0.332*[#   3]+0.332*[#   4]+0.001*[#  11]+0.001*[#  12]+
          +0.001*[#  13]+
    |psi|^2 = 1.000
==== e(   5) =    13.73320 eV ==== 
     psi = 0.180*[#   5]+0.180*[#   8]+0.153*[#  10]+0.124*[#  11]+0.124*[#  12]+
          +0.124*[#  13]+0.034*[#   6]+0.034*[#   7]+0.034*[#   9]+0.005*[#   1]+
    |psi|^2 = 0.997
==== e(   6) =    14.61696 eV ==== 
     psi = 0.308*[#   6]+0.308*[#   7]+0.308*[#   9]+0.024*[#  11]+0.024*[#  12]+
          +0.024*[#  13]+
    |psi|^2 = 0.995
==== e(   7) =    15.28645 eV ==== 
     psi = 0.212*[#   5]+0.212*[#   8]+0.161*[#   6]+0.161*[#   7]+0.161*[#   9]+
          +0.026*[#  10]+0.021*[#  11]+0.021*[#  12]+0.021*[#  13]+
    |psi|^2 = 0.995
==== e(   8) =    16.80364 eV ==== 
     psi = 0.478*[#   5]+0.478*[#   8]+0.013*[#  11]+0.013*[#  12]+0.013*[#  13]+
    |psi|^2 = 0.999
==== e(   9) =    17.07314 eV ==== 
     psi = 0.330*[#   6]+0.330*[#   7]+0.330*[#   9]+0.003*[#  11]+0.003*[#  12]+
          +0.003*[#  13]+
    |psi|^2 = 0.999
==== e(  10) =    19.17293 eV ==== 
     psi = 0.133*[#   6]+0.133*[#   7]+0.133*[#   9]+0.107*[#   5]+0.107*[#   8]+
          +0.100*[#  10]+0.094*[#  11]+0.094*[#  12]+0.094*[#  13]+0.003*[#   1]+
    |psi|^2 = 1.000
==== e(  11) =    29.83875 eV ==== 
     psi = 0.296*[#  11]+0.296*[#  12]+0.296*[#  13]+0.028*[#   6]+0.028*[#   7]+
          +0.028*[#   9]+
    |psi|^2 = 0.972
==== e(  12) =    30.92167 eV ==== 
     psi = 0.330*[#  10]+0.182*[#  11]+0.182*[#  12]+0.182*[#  13]+0.013*[#   5]+
          +0.013*[#   8]+0.006*[#   1]+0.004*[#   6]+0.004*[#   7]+0.004*[#   9]+
    |psi|^2 = 0.922
==== e(  13) =    34.56225 eV ==== 
     psi = 0.323*[#  10]+0.134*[#  11]+0.134*[#  12]+0.134*[#  13]+0.011*[#   1]+
          +0.009*[#   5]+0.009*[#   8]+
    |psi|^2 = 0.757
==== e(  14) =    44.28734 eV ==== 
     psi = 0.007*[#  11]+0.007*[#  12]+0.007*[#  13]+
    |psi|^2 = 0.022
==== e(  15) =    46.48048 eV ==== 
     psi = 0.077*[#  11]+0.077*[#  12]+0.077*[#  13]+0.023*[#  10]+0.001*[#   1]+
    |psi|^2 = 0.256
==== e(  16) =    50.72029 eV ==== 
     psi = 0.028*[#  10]+0.005*[#  11]+0.005*[#  12]+0.005*[#  13]+
    |psi|^2 = 0.044
==== e(  17) =    57.35361 eV ==== 
     psi = 
    |psi|^2 = 0.002
==== e(  18) =    61.73775 eV ==== 
     psi = 0.001*[#  11]+0.001*[#  12]+0.001*[#  13]+
    |psi|^2 = 0.005
==== e(  19) =    64.35271 eV ==== 
     psi = 0.002*[#  11]+0.002*[#  12]+0.002*[#  13]+
    |psi|^2 = 0.007
==== e(  20) =    64.93437 eV ==== 
     psi = 0.006*[#  10]+0.003*[#  11]+0.003*[#  12]+0.003*[#  13]+
    |psi|^2 = 0.015
==== e(  21) =    66.19432 eV ==== 
     psi = 0.001*[#  11]+0.001*[#  12]+0.001*[#  13]+0.001*[#  10]+
    |psi|^2 = 0.006
==== e(  22) =    73.23572 eV ==== 
     psi = 
    |psi|^2 = 0.002
==== e(  23) =    75.82720 eV ==== 
     psi = 
    |psi|^2 = 0.001
==== e(  24) =    77.98321 eV ==== 
     psi = 
    |psi|^2 = 0.001

 k =  -0.1178511302 -0.3535533906  0.5892556510
==== e(   1) =   -85.51264 eV ==== 
     psi = 0.989*[#   1]+0.005*[#  10]+0.002*[#  11]+0.002*[#  12]+0.002*[#  13]+
    |psi|^2 = 1.000
==== e(   2) =   -45.99363 eV ==== 
     psi = 0.332*[#   2]+0.332*[#   3]+0.332*[#   4]+0.001*[#  11]+0.001*[#  12]+
          +0.001*[#  13]+
    |psi|^2 = 1.000
==== e(   3) =   -45.93941 eV ==== 
     psi = 0.333*[#   2]+0.333*[#   3]+0.333*[#   4]+
    |psi|^2 = 1.000
==== e(   4) =   -45.88594 eV ==== 
     psi = 0.333*[#   2]+0.333*[#   3]+0.333*[#   4]+
    |psi|^2 = 1.000
==== e(   5) =    14.47178 eV ==== 
     psi = 0.415*[#   5]+0.415*[#   8]+0.055*[#  11]+0.055*[#  12]+0.055*[#  13]+
    |psi|^2 = 0.995
==== e(   6) =    14.48016 eV ==== 
     psi = 0.266*[#   6]+0.266*[#   7]+0.266*[#   9]+0.055*[#  10]+0.044*[#  11]+
          +0.044*[#  12]+0.044*[#  13]+0.006*[#   5]+0.006*[#   8]+
    |psi|^2 = 0.997
==== e(   7) =    15.22638 eV ==== 
     psi = 0.282*[#   6]+0.282*[#   7]+0.282*[#   9]+0.048*[#  11]+0.048*[#  12]+
          +0.048*[#  13]+0.003*[#   5]+0.003*[#   8]+
    |psi|^2 = 0.997
==== e(   8) =    16.56304 eV ==== 
     psi = 0.434*[#   5]+0.434*[#   8]+0.037*[#   6]+0.037*[#   7]+0.037*[#   9]+
          +0.005*[#  10]+0.004*[#  11]+0.004*[#  12]+0.004*[#  13]+
    |psi|^2 = 0.998
==== e(   9) =    17.47266 eV ==== 
     psi = 0.298*[#   6]+0.298*[#   7]+0.298*[#   9]+0.051*[#   5]+0.051*[#   8]+
          +0.002*[#  10]+
    |psi|^2 = 1.000
==== e(  10) =    22.76387 eV ==== 
     psi = 0.247*[#  11]+0.247*[#  12]+0.247*[#  13]+0.060*[#   5]+0.060*[#   8]+
          +0.045*[#   6]+0.045*[#   7]+0.045*[#   9]+
    |psi|^2 = 0.997
==== e(  11) =    24.37986 eV ==== 
     psi = 0.386*[#  10]+0.140*[#  11]+0.140*[#  12]+0.140*[#  13]+0.062*[#   6]+
          +0.062*[#   7]+0.062*[#   9]+
    |psi|^2 = 0.993
==== e(  12) =    31.22648 eV ==== 
     psi = 0.266*[#  11]+0.266*[#  12]+0.266*[#  13]+0.022*[#   5]+0.022*[#   8]+
          +0.005*[#   6]+0.005*[#   7]+0.005*[#   9]+
    |psi|^2 = 0.861
==== e(  13) =    31.92744 eV ==== 
     psi = 0.515*[#  10]+0.138*[#  11]+0.138*[#  12]+0.138*[#  13]+0.010*[#   1]+
          +0.007*[#   5]+0.007*[#   8]+0.003*[#   6]+0.003*[#   7]+0.003*[#   9]+
    |psi|^2 = 0.963
==== e(  14) =    44.80170 eV ==== 
     psi = 0.037*[#  11]+0.037*[#  12]+0.037*[#  13]+
    |psi|^2 = 0.112
==== e(  15) =    47.57944 eV ==== 
     psi = 0.004*[#  10]+
    |psi|^2 = 0.006
==== e(  16) =    54.22215 eV ==== 
     psi = 0.008*[#  11]+0.008*[#  12]+0.008*[#  13]+
    |psi|^2 = 0.026
==== e(  17) =    56.51297 eV ==== 
     psi = 0.024*[#  10]+0.004*[#  11]+0.004*[#  12]+0.004*[#  13]+
    |psi|^2 = 0.035
==== e(  18) =    58.74908 eV ==== 
     psi = 
    |psi|^2 = 0.001
==== e(  19) =    63.17856 eV ==== 
     psi = 0.001*[#  10]+
    |psi|^2 = 0.003
==== e(  20) =    68.36465 eV ==== 
     psi = 0.003*[#  11]+0.003*[#  12]+0.003*[#  13]+
    |psi|^2 = 0.008
==== e(  21) =    70.03128 eV ==== 
     psi = 
    |psi|^2 = 0.001
==== e(  22) =    75.54665 eV ==== 
     psi = 
    |psi|^2 = 0.001
==== e(  23) =    76.60755 eV ==== 
     psi = 0.001*[#  10]+
    |psi|^2 = 0.001
==== e(  24) =    78.75443 eV ==== 
     psi = 
    |psi|^2 = 0.000

 k =  -0.7071067812  0.2357022604  0.0000000000
==== e(   1) =   -85.50988 eV ==== 
     psi = 0.993*[#   1]+0.007*[#  10]+
    |psi|^2 = 1.000
==== e(   2) =   -45.99888 eV ==== 
     psi = 0.332*[#   2]+0.332*[#   3]+0.332*[#   4]+0.001*[#  11]+0.001*[#  12]+
          +0.001*[#  13]+
    |psi|^2 = 1.000
==== e(   3) =   -45.93627 eV ==== 
     psi = 0.333*[#   2]+0.333*[#   3]+0.333*[#   4]+
    |psi|^2 = 1.000
==== e(   4) =   -45.90602 eV ==== 
     psi = 0.333*[#   2]+0.333*[#   3]+0.333*[#   4]+
    |psi|^2 = 1.000
==== e(   5) =    13.88284 eV ==== 
     psi = 0.428*[#   5]+0.428*[#   8]+0.035*[#  11]+0.035*[#  12]+0.035*[#  13]+
          +0.032*[#  10]+
    |psi|^2 = 0.993
==== e(   6) =    14.33918 eV ==== 
     psi = 0.305*[#   6]+0.305*[#   7]+0.305*[#   9]+0.027*[#  11]+0.027*[#  12]+
          +0.027*[#  13]+
    |psi|^2 = 0.994
==== e(   7) =    15.86727 eV ==== 
     psi = 0.275*[#   6]+0.275*[#   7]+0.275*[#   9]+0.058*[#  11]+0.058*[#  12]+
          +0.058*[#  13]+
    |psi|^2 = 0.999
==== e(   8) =    16.95338 eV ==== 
     psi = 0.491*[#   5]+0.491*[#   8]+0.010*[#  10]+0.002*[#  11]+0.002*[#  12]+
          +0.002*[#  13]+
    |psi|^2 = 0.999
==== e(   9) =    17.70761 eV ==== 
     psi = 0.333*[#   6]+0.333*[#   7]+0.333*[#   9]+
    |psi|^2 = 1.000
==== e(  10) =    23.17669 eV ==== 
     psi = 0.274*[#  11]+0.274*[#  12]+0.274*[#  13]+0.058*[#   6]+0.058*[#   7]+
          +0.058*[#   9]+
    |psi|^2 = 0.998
==== e(  11) =    27.39999 eV ==== 
     psi = 0.399*[#  10]+0.133*[#  11]+0.133*[#  12]+0.133*[#  13]+0.067*[#   5]+
          +0.067*[#   8]+0.003*[#   1]+
    |psi|^2 = 0.934
==== e(  12) =    28.12521 eV ==== 
     psi = 0.301*[#  11]+0.301*[#  12]+0.301*[#  13]+0.028*[#   6]+0.028*[#   7]+
          +0.028*[#   9]+
    |psi|^2 = 0.987
==== e(  13) =    29.71378 eV ==== 
     psi = 0.511*[#  10]+0.145*[#  11]+0.145*[#  12]+0.145*[#  13]+0.013*[#   5]+
          +0.013*[#   8]+0.004*[#   1]+
    |psi|^2 = 0.975
==== e(  14) =    43.28603 eV ==== 
     psi = 0.004*[#  11]+0.004*[#  12]+0.004*[#  13]+
    |psi|^2 = 0.013
==== e(  15) =    46.84139 eV ==== 
     psi = 0.028*[#  10]+0.015*[#  11]+0.015*[#  12]+0.015*[#  13]+
    |psi|^2 = 0.073
==== e(  16) =    53.09872 eV ==== 
     psi = 
    |psi|^2 = 0.001
==== e(  17) =    58.94642 eV ==== 
     psi = 0.011*[#  10]+0.004*[#  11]+0.004*[#  12]+0.004*[#  13]+
    |psi|^2 = 0.021
==== e(  18) =    65.43546 eV ==== 
     psi = 
    |psi|^2 = 0.001
==== e(  19) =    68.28099 eV ==== 
     psi = 
    |psi|^2 = 0.000
==== e(  20) =    68.74347 eV ==== 
     psi = 
    |psi|^2 = 0.000
==== e(  21) =    72.25434 eV ==== 
     psi = 
    |psi|^2 = 0.001
==== e(  22) =    73.17026 eV ==== 
     psi = 0.002*[#  11]+0.002*[#  12]+0.002*[#  13]+
    |psi|^2 = 0.005
==== e(  23) =    73.99506 eV ==== 
     psi = 
    |psi|^2 = 0.000
==== e(  24) =    77.48674 eV ==== 
     psi = 
    |psi|^2 = 0.000

Lowdin Charges: 

     Atom #   1: total charge =  17.9673, s =  2.4482, p =  7.0547, d =  8.4645, 
                 spin up      =   8.9837, s =  1.2241, p =  3.5273, d =  4.2322, 
                 spin down    =   8.9837, s =  1.2241, p =  3.5273, d =  4.2322, 
                 polarization =   0.0000, s =  0.0000, p =  0.0000, d =  0.0000, 
     Spilling Parameter:   0.0018
