loading modules
dropbox is Dropbox isn't running!

     Program PWSCF v.5.0.2 (svn rev. 9656) starts on 25Aug2014 at 15:49:11 

     This program is part of the open-source Quantum ESPRESSO suite
     for quantum simulation of materials; please cite
         "P. Giannozzi et al., J. Phys.:Condens. Matter 21 395502 (2009);
          URL http://www.quantum-espresso.org", 
     in publications or presentations arising from this work. More details at
     http://www.quantum-espresso.org/quote.php

     Parallel version (MPI), running on     1 processors

     Current dimensions of program PWSCF are:
     Max number of different atomic species (ntypx) = 10
     Max number of k-points (npk) =  40000
     Max angular momentum in pseudopotentials (lmaxx) =  3
     Waiting for input...
     Reading input from standard input
Warning: card &IONS ignored
Warning: card / ignored
Warning: card &CELL ignored
Warning: card / ignored

     Subspace diagonalization in iterative solution of the eigenvalue problem:
     a serial algorithm will be used

 
     G-vector sticks info
     --------------------
     sticks:   dense  smooth     PW     G-vecs:    dense   smooth      PW
     Sum       12273    4909   1221              1205747   305093   38167
 


     bravais-lattice index     =            0
     lattice parameter (alat)  =      15.1178  a.u.
     unit-cell volume          =    4858.8009 (a.u.)^3
     number of atoms/cell      =            1
     number of atomic types    =            1
     number of electrons       =         1.00
     number of Kohn-Sham states=            1
     kinetic-energy cutoff     =      60.0000  Ry
     charge density cutoff     =     600.0000  Ry
     convergence threshold     =      1.0E-06
     mixing beta               =       0.7000
     number of iterations used =            8  plain     mixing
     Exchange-correlation      = SLA  PW   PBE  PBE ( 1 4 3 4 0)
     EXX-fraction              =        0.00

     celldm(1)=  15.117809  celldm(2)=   0.000000  celldm(3)=   0.000000
     celldm(4)=   0.000000  celldm(5)=   0.000000  celldm(6)=   0.000000

     crystal axes: (cart. coord. in units of alat)
               a(1) = (   1.000000   0.000000   0.000000 )  
               a(2) = (   0.000000   1.125000   0.000000 )  
               a(3) = (   0.000000   0.000000   1.250000 )  

     reciprocal axes: (cart. coord. in units 2 pi/alat)
               b(1) = (  1.000000  0.000000  0.000000 )  
               b(2) = (  0.000000  0.888889  0.000000 )  
               b(3) = (  0.000000  0.000000  0.800000 )  


     PseudoPot. # 1 for H  read from file:
     /home-research/zhongnanxu/pseudopotentials/gbrv_espresso_pseudo/h_pbe_v1.uspp.F.UPF
     MD5 check sum: 3408e3ff4ec8b0a4e358431e7e038a48
     Pseudo is Ultrasoft, Zval =  1.0
     Generated by new atomic code, or converted to UPF format
     Using radial grid of  615 points,  2 beta functions with: 
                l(1) =   0
                l(2) =   0
     Q(r) pseudized with  8 coefficients,  rinner =    0.700

     atomic species   valence    mass     pseudopotential
        H0             1.00     1.00794     H ( 1.00)

      8 Sym. Ops., with inversion, found



   Cartesian axes

     site n.     atom                  positions (alat units)
         1           H0  tau(   1) = (   0.0000000   0.0000000   0.0000000  )

     number of k points=     1  gaussian smearing, width (Ry)=  0.0100
                       cart. coord. in units 2pi/alat
        k(    1) = (   0.0000000   0.0000000   0.0000000), wk =   2.0000000

     Dense  grid:  1205747 G-vectors     FFT dimensions: ( 120, 135, 150)

     Smooth grid:   305093 G-vectors     FFT dimensions: (  75,  90,  96)

     Largest allocated arrays     est. size (Mb)     dimensions
        Kohn-Sham Wavefunctions         0.58 Mb     (  38167,    1)
        NL pseudopotentials             1.16 Mb     (  38167,    2)
        Each V/rho on FFT grid         37.08 Mb     (2430000)
        Each G-vector array             9.20 Mb     (1205747)
        G-vector shells                 0.83 Mb     ( 108327)
     Largest temporary arrays     est. size (Mb)     dimensions
        Auxiliary wavefunctions         2.33 Mb     (  38167,    4)
        Each subspace H/S matrix        0.00 Mb     (   4,   4)
        Each <psi_i|beta_j> matrix      0.00 Mb     (      2,    1)
        Arrays for rho mixing         296.63 Mb     (2430000,   8)

     Initial potential from superposition of free atoms
     Check: negative starting charge=   -0.000155

     starting charge    0.99999, renormalised to    1.00000

     negative rho (up, down):  0.155E-03 0.000E+00
     Starting wfc are    1 randomized atomic wfcs

     total cpu time spent up to now is       11.9 secs

     per-process dynamical memory:   444.3 Mb

     Self-consistent Calculation

     iteration #  1     ecut=    60.00 Ry     beta=0.70
     Davidson diagonalization with overlap
     ethr =  1.00E-02,  avg # of iterations =  1.0

     Threshold (ethr) on eigenvalues was too large:
     Diagonalizing with lowered threshold

     Davidson diagonalization with overlap
     ethr =  9.35E-08,  avg # of iterations =  4.0

     negative rho (up, down):  0.324E-03 0.000E+00

     total cpu time spent up to now is       23.7 secs

     End of self-consistent calculation

          k = 0.0000 0.0000 0.0000 ( 38167 PWs)   bands (ev):

    -6.4405

     the Fermi energy is    -6.4405 ev

!    total energy              =      -0.92261676 Ry
     Harris-Foulkes estimate   =      -0.92259436 Ry
     estimated scf accuracy    <       0.00000092 Ry

     The total energy is the sum of the following terms:

     one-electron contribution =      -0.66637882 Ry
     hartree contribution      =       0.41613838 Ry
     xc contribution           =      -0.50136072 Ry
     ewald contribution        =      -0.16537370 Ry
     smearing contrib. (-TS)   =      -0.00564190 Ry

     convergence has been achieved in   1 iterations

     Forces acting on atoms (Ry/au):

     atom    1 type  1   force =     0.00000000    0.00000000    0.00000000

     Total force =     0.000000     Total SCF correction =     0.000000

     Writing output data file pwscf.save
 
     init_run     :     10.91s CPU     11.65s WALL (       1 calls)
     electrons    :     11.00s CPU     11.78s WALL (       1 calls)
     forces       :      3.43s CPU      3.59s WALL (       1 calls)

     Called by init_run:
     wfcinit      :      0.12s CPU      0.12s WALL (       1 calls)
     potinit      :      7.20s CPU      7.67s WALL (       1 calls)

     Called by electrons:
     c_bands      :      0.76s CPU      0.77s WALL (       2 calls)
     sum_band     :      4.61s CPU      4.93s WALL (       2 calls)
     v_of_rho     :      8.54s CPU      9.16s WALL (       2 calls)
     newd         :      1.29s CPU      1.40s WALL (       2 calls)
     mix_rho      :      0.04s CPU      0.04s WALL (       2 calls)

     Called by c_bands:
     init_us_2    :      0.03s CPU      0.03s WALL (       5 calls)
     cegterg      :      0.74s CPU      0.75s WALL (       2 calls)

     Called by *egterg:
     h_psi        :      0.79s CPU      0.79s WALL (       8 calls)
     s_psi        :      0.00s CPU      0.01s WALL (       8 calls)
     g_psi        :      0.00s CPU      0.01s WALL (       5 calls)
     cdiaghg      :      0.00s CPU      0.00s WALL (       6 calls)

     Called by h_psi:
     add_vuspsi   :      0.01s CPU      0.01s WALL (       8 calls)

     General routines
     calbec       :      0.01s CPU      0.01s WALL (      11 calls)
     fft          :     11.24s CPU     11.88s WALL (      34 calls)
     ffts         :      0.29s CPU      0.32s WALL (       4 calls)
     fftw         :      0.72s CPU      0.72s WALL (      18 calls)
     interpolate  :      1.91s CPU      2.14s WALL (       4 calls)
     davcio       :      0.00s CPU      0.00s WALL (       1 calls)
 
     Parallel routines
     fft_scatter  :      1.18s CPU      1.48s WALL (      56 calls)
 
     PWSCF        :    25.68s CPU        27.62s WALL

 
   This run was terminated on:  15:49:39  25Aug2014            

=------------------------------------------------------------------------------=
   JOB DONE.
=------------------------------------------------------------------------------=
