loading modules

     Program PWSCF v.5.0.2 (svn rev. 9392) starts on  8Jan2015 at 13: 9:29 

     This program is part of the open-source Quantum ESPRESSO suite
     for quantum simulation of materials; please cite
         "P. Giannozzi et al., J. Phys.:Condens. Matter 21 395502 (2009);
          URL http://www.quantum-espresso.org", 
     in publications or presentations arising from this work. More details at
     http://www.quantum-espresso.org/quote.php

     Parallel version (MPI), running on     4 processors
     R & G space division:  proc/nbgrp/npool/nimage =       4

     Current dimensions of program PWSCF are:
     Max number of different atomic species (ntypx) = 10
     Max number of k-points (npk) =  40000
     Max angular momentum in pseudopotentials (lmaxx) =  3
     Reading input from pwscf.in
Warning: card &IONS ignored
Warning: card / ignored
Warning: card &CELL ignored
Warning: card / ignored
               file Ni.pbe-nd-rrkjus.UPF: wavefunction(s)  4S renormalized
               file Ni.pbe-nd-rrkjus.UPF: wavefunction(s)  4S renormalized
               file O.pbe-rrkjus.UPF: wavefunction(s)  2S renormalized

     Subspace diagonalization in iterative solution of the eigenvalue problem:
     a serial algorithm will be used

     Found symmetry operation: I + ( -0.5000 -0.5000  0.0000)
     This is a supercell, fractional translations are disabled
 
     Parallelization info
     --------------------
     sticks:   dense  smooth     PW     G-vecs:    dense   smooth      PW
     Min        1297     518    145                61740    15606    2350
     Max        1298     519    146                61742    15617    2353
     Sum        5189    2073    583               246965    62451    9409
 


     bravais-lattice index     =            0
     lattice parameter (alat)  =      11.1923  a.u.
     unit-cell volume          =     994.2354 (a.u.)^3
     number of atoms/cell      =           16
     number of atomic types    =            3
     number of electrons       =       128.00 (up:  64.00, down:  64.00)
     number of Kohn-Sham states=          192
     kinetic-energy cutoff     =      60.0000  Ry
     charge density cutoff     =     600.0000  Ry
     convergence threshold     =      1.0E-08
     mixing beta               =       0.7000
     number of iterations used =            8  plain     mixing
     Exchange-correlation      =  SLA  PW   PBE  PBE ( 1 4 3 4 0)
     EXX-fraction              =        0.00

     celldm(1)=  11.192341  celldm(2)=   0.000000  celldm(3)=   0.000000
     celldm(4)=   0.000000  celldm(5)=   0.000000  celldm(6)=   0.000000

     crystal axes: (cart. coord. in units of alat)
               a(1) = (  -0.001351   0.707106   0.707106 )  
               a(2) = (   0.707106  -0.001351   0.707106 )  
               a(3) = (   0.707106   0.707106  -0.001351 )  

     reciprocal axes: (cart. coord. in units 2 pi/alat)
               b(1) = ( -0.705085  0.706434  0.706434 )  
               b(2) = (  0.706434 -0.705085  0.706434 )  
               b(3) = (  0.706434  0.706434 -0.705085 )  


     PseudoPot. # 1 for Ni read from file:
     /home-research/zhongnanxu/pseudopotentials/qe_pseudo/Ni.pbe-nd-rrkjus.UPF
     MD5 check sum: 8081f0a005c9a5470caab1a58e82ecb2
     Pseudo is Ultrasoft + core correction, Zval = 10.0
     Generated by new atomic code, or converted to UPF format
     Using radial grid of 1203 points,  6 beta functions with: 
                l(1) =   0
                l(2) =   0
                l(3) =   1
                l(4) =   1
                l(5) =   2
                l(6) =   2
     Q(r) pseudized with 0 coefficients 


     PseudoPot. # 2 for Ni read from file:
     /home-research/zhongnanxu/pseudopotentials/qe_pseudo/Ni.pbe-nd-rrkjus.UPF
     MD5 check sum: 8081f0a005c9a5470caab1a58e82ecb2
     Pseudo is Ultrasoft + core correction, Zval = 10.0
     Generated by new atomic code, or converted to UPF format
     Using radial grid of 1203 points,  6 beta functions with: 
                l(1) =   0
                l(2) =   0
                l(3) =   1
                l(4) =   1
                l(5) =   2
                l(6) =   2
     Q(r) pseudized with 0 coefficients 


     PseudoPot. # 3 for O  read from file:
     /home-research/zhongnanxu/pseudopotentials/qe_pseudo/O.pbe-rrkjus.UPF
     MD5 check sum: 390ba29e75625707450f3bd3f0eb6be9
     Pseudo is Ultrasoft, Zval =  6.0
     Generated by new atomic code, or converted to UPF format
     Using radial grid of 1269 points,  4 beta functions with: 
                l(1) =   0
                l(2) =   0
                l(3) =   1
                l(4) =   1
     Q(r) pseudized with 0 coefficients 


     atomic species   valence    mass     pseudopotential
        Ni0           10.00    58.69340     Ni( 1.00)
        Ni1           10.00    58.69340     Ni( 1.00)
        O2             6.00    15.99940     O ( 1.00)

     Starting magnetic structure 
     atomic species   magnetization
        Ni0          0.500
        Ni1         -0.500
        O2           0.000

     12 Sym. Ops., with inversion, found



   Cartesian axes

     site n.     atom                  positions (alat units)
         1           Ni0 tau(   1) = (   0.0000000   0.0000000   0.0000000  )
         2           Ni0 tau(   2) = (   0.3528777   0.3528777   0.7071061  )
         3           Ni0 tau(   3) = (   0.3528777   0.7071061   0.3528777  )
         4           Ni0 tau(   4) = (   0.7071061   0.3528777   0.3528777  )
         5           Ni1 tau(   5) = (  -0.0006754   0.3535531   0.3535531  )
         6           Ni1 tau(   6) = (   0.3535531  -0.0006754   0.3535531  )
         7           Ni1 tau(   7) = (   0.3535531   0.3535531  -0.0006754  )
         8           Ni1 tau(   8) = (   0.7064308   0.7064308   0.7064308  )
         9           O2  tau(   9) = (   0.3532154   0.3532154   0.3532154  )
        10           O2  tau(  10) = (   0.3525400   0.7067685   0.7067685  )
        11           O2  tau(  11) = (   0.7067685   0.3525400   0.7067685  )
        12           O2  tau(  12) = (   0.7067685   0.7067685   0.3525400  )
        13           O2  tau(  13) = (   1.0603215   0.7060931   0.7060931  )
        14           O2  tau(  14) = (   0.7060931   1.0603215   0.7060931  )
        15           O2  tau(  15) = (   0.7060931   0.7060931   1.0603215  )
        16           O2  tau(  16) = (   1.0596462   1.0596462   1.0596462  )

     number of k points=    26  Methfessel-Paxton smearing, width (Ry)=  0.0200
                       cart. coord. in units 2pi/alat
        k(    1) = (   0.0000000   0.0000000   0.0000000), wk =   0.0156250
        k(    2) = (   0.1766085   0.1766085  -0.1762711), wk =   0.0937500
        k(    3) = (  -0.3532170  -0.3532170   0.3525423), wk =   0.0468750
        k(    4) = (   0.3532170   0.0003374   0.0003374), wk =   0.0937500
        k(    5) = (  -0.1766085  -0.5294881   0.5291508), wk =   0.1875000
        k(    6) = (   0.0000000  -0.3528796   0.3528796), wk =   0.0937500
        k(    7) = (  -0.7064340  -0.0006747  -0.0006747), wk =   0.0468750
        k(    8) = (   0.1769459   0.1769459   0.1769459), wk =   0.0312500
        k(    9) = (  -0.3528796  -0.3528796   0.7057593), wk =   0.0937500
        k(   10) = (  -0.1762711  -0.1762711   0.5294881), wk =   0.0937500
        k(   11) = (  -0.8827051   0.1759338   0.1759338), wk =   0.0937500
        k(   12) = (  -0.7060966   0.3525423  -0.0003374), wk =   0.0937500
        k(   13) = (  -0.3538917  -0.3538917  -0.3538917), wk =   0.0156250
        k(   14) = (   0.0000000   0.0000000   0.0000000), wk =   0.0156250
        k(   15) = (   0.1766085   0.1766085  -0.1762711), wk =   0.0937500
        k(   16) = (  -0.3532170  -0.3532170   0.3525423), wk =   0.0468750
        k(   17) = (   0.3532170   0.0003374   0.0003374), wk =   0.0937500
        k(   18) = (  -0.1766085  -0.5294881   0.5291508), wk =   0.1875000
        k(   19) = (   0.0000000  -0.3528796   0.3528796), wk =   0.0937500
        k(   20) = (  -0.7064340  -0.0006747  -0.0006747), wk =   0.0468750
        k(   21) = (   0.1769459   0.1769459   0.1769459), wk =   0.0312500
        k(   22) = (  -0.3528796  -0.3528796   0.7057593), wk =   0.0937500
        k(   23) = (  -0.1762711  -0.1762711   0.5294881), wk =   0.0937500
        k(   24) = (  -0.8827051   0.1759338   0.1759338), wk =   0.0937500
        k(   25) = (  -0.7060966   0.3525423  -0.0003374), wk =   0.0937500
        k(   26) = (  -0.3538917  -0.3538917  -0.3538917), wk =   0.0156250

     Dense  grid:   246965 G-vectors     FFT dimensions: (  90,  90,  90)

     Smooth grid:    62451 G-vectors     FFT dimensions: (  60,  60,  60)

     Largest allocated arrays     est. size (Mb)     dimensions
        Kohn-Sham Wavefunctions         5.80 Mb     (   1981,  192)
        NL pseudopotentials             6.29 Mb     (   1981,  208)
        Each V/rho on FFT grid          5.69 Mb     ( 186300,   2)
        Each G-vector array             0.47 Mb     (  61741)
        G-vector shells                 0.11 Mb     (  14990)
     Largest temporary arrays     est. size (Mb)     dimensions
        Auxiliary wavefunctions        23.21 Mb     (   1981,  768)
        Each subspace H/S matrix        9.00 Mb     ( 768, 768)
        Each <psi_i|beta_j> matrix      0.61 Mb     (    208,  192)
        Arrays for rho mixing          22.74 Mb     ( 186300,   8)

     Check: negative/imaginary core charge=   -0.000009    0.000000

     Initial potential from superposition of free atoms

     starting charge  127.99632, renormalised to  128.00000
     Starting wfc are   80 randomized atomic wfcs

     total cpu time spent up to now is       59.4 secs

     per-process dynamical memory:   232.0 Mb

     Self-consistent Calculation

     iteration #  1     ecut=    60.00 Ry     beta=0.70
     Davidson diagonalization with overlap
     ethr =  1.00E-02,  avg # of iterations =  6.2

     total cpu time spent up to now is      541.1 secs

     total energy              =    -935.71874462 Ry
     Harris-Foulkes estimate   =    -942.67433636 Ry
     estimated scf accuracy    <      10.22776306 Ry

     total magnetization       =     0.00 Bohr mag/cell
     absolute magnetization    =    18.59 Bohr mag/cell

     iteration #  2     ecut=    60.00 Ry     beta=0.70
     Davidson diagonalization with overlap
     ethr =  7.99E-03,  avg # of iterations =  5.7

     total cpu time spent up to now is      774.3 secs

     total energy              =    -935.33945929 Ry
     Harris-Foulkes estimate   =    -952.05062109 Ry
     estimated scf accuracy    <      52.19307906 Ry

     total magnetization       =     0.00 Bohr mag/cell
     absolute magnetization    =     1.37 Bohr mag/cell

     iteration #  3     ecut=    60.00 Ry     beta=0.70
     Davidson diagonalization with overlap
     ethr =  7.99E-03,  avg # of iterations =  1.8

     total cpu time spent up to now is      933.5 secs

     total energy              =    -942.00594837 Ry
     Harris-Foulkes estimate   =    -941.86613228 Ry
     estimated scf accuracy    <       0.27716615 Ry

     total magnetization       =     0.00 Bohr mag/cell
     absolute magnetization    =    12.76 Bohr mag/cell

     iteration #  4     ecut=    60.00 Ry     beta=0.70
     Davidson diagonalization with overlap
     ethr =  2.17E-04,  avg # of iterations =  7.0

     total cpu time spent up to now is     1172.7 secs

     total energy              =    -942.03117509 Ry
     Harris-Foulkes estimate   =    -942.03145507 Ry
     estimated scf accuracy    <       0.00513979 Ry

     total magnetization       =     0.00 Bohr mag/cell
     absolute magnetization    =    12.29 Bohr mag/cell

     iteration #  5     ecut=    60.00 Ry     beta=0.70
     Davidson diagonalization with overlap
     ethr =  4.02E-06,  avg # of iterations =  9.4

     total cpu time spent up to now is     1496.8 secs

     total energy              =    -942.03210106 Ry
     Harris-Foulkes estimate   =    -942.03225106 Ry
     estimated scf accuracy    <       0.00068472 Ry

     total magnetization       =     0.00 Bohr mag/cell
     absolute magnetization    =    12.31 Bohr mag/cell

     iteration #  6     ecut=    60.00 Ry     beta=0.70
     Davidson diagonalization with overlap
     ethr =  5.35E-07,  avg # of iterations =  3.6

     total cpu time spent up to now is     1690.5 secs

     total energy              =    -942.02532683 Ry
     Harris-Foulkes estimate   =    -942.02560233 Ry
     estimated scf accuracy    <       0.00132701 Ry

     total magnetization       =     0.00 Bohr mag/cell
     absolute magnetization    =    12.35 Bohr mag/cell

     iteration #  7     ecut=    60.00 Ry     beta=0.70
     Davidson diagonalization with overlap
     ethr =  5.35E-07,  avg # of iterations =  3.7

     total cpu time spent up to now is     1877.4 secs

     total energy              =    -942.02546216 Ry
     Harris-Foulkes estimate   =    -942.02562097 Ry
     estimated scf accuracy    <       0.00148080 Ry

     total magnetization       =     0.00 Bohr mag/cell
     absolute magnetization    =    12.35 Bohr mag/cell

     iteration #  8     ecut=    60.00 Ry     beta=0.70
     Davidson diagonalization with overlap
     ethr =  5.35E-07,  avg # of iterations =  1.2

     total cpu time spent up to now is     2038.6 secs

     total energy              =    -942.02553222 Ry
     Harris-Foulkes estimate   =    -942.02557093 Ry
     estimated scf accuracy    <       0.00017926 Ry

     total magnetization       =     0.00 Bohr mag/cell
     absolute magnetization    =    12.36 Bohr mag/cell

     iteration #  9     ecut=    60.00 Ry     beta=0.70
     Davidson diagonalization with overlap
     ethr =  1.40E-07,  avg # of iterations =  1.0

     total cpu time spent up to now is     2192.4 secs

     total energy              =    -942.02556143 Ry
     Harris-Foulkes estimate   =    -942.02557030 Ry
     estimated scf accuracy    <       0.00009269 Ry

     total magnetization       =     0.00 Bohr mag/cell
     absolute magnetization    =    12.36 Bohr mag/cell

     iteration # 10     ecut=    60.00 Ry     beta=0.70
     Davidson diagonalization with overlap
     ethr =  7.24E-08,  avg # of iterations =  1.0

     total cpu time spent up to now is     2354.0 secs

     total energy              =    -942.02556914 Ry
     Harris-Foulkes estimate   =    -942.02557240 Ry
     estimated scf accuracy    <       0.00000681 Ry

     total magnetization       =     0.00 Bohr mag/cell
     absolute magnetization    =    12.36 Bohr mag/cell

     iteration # 11     ecut=    60.00 Ry     beta=0.70
     Davidson diagonalization with overlap
     ethr =  5.32E-09,  avg # of iterations =  1.0

     total cpu time spent up to now is     2515.7 secs

     total energy              =    -942.02556741 Ry
     Harris-Foulkes estimate   =    -942.02557646 Ry
     estimated scf accuracy    <       0.00005047 Ry

     total magnetization       =     0.00 Bohr mag/cell
     absolute magnetization    =    12.36 Bohr mag/cell

     iteration # 12     ecut=    60.00 Ry     beta=0.70
     Davidson diagonalization with overlap
     ethr =  5.32E-09,  avg # of iterations =  1.0

     total cpu time spent up to now is     2676.8 secs

     total energy              =    -942.02557175 Ry
     Harris-Foulkes estimate   =    -942.02557219 Ry
     estimated scf accuracy    <       0.00000150 Ry

     total magnetization       =     0.00 Bohr mag/cell
     absolute magnetization    =    12.36 Bohr mag/cell

     iteration # 13     ecut=    60.00 Ry     beta=0.70
     Davidson diagonalization with overlap
     ethr =  1.17E-09,  avg # of iterations =  1.0

     total cpu time spent up to now is     2833.8 secs

     total energy              =    -942.02557199 Ry
     Harris-Foulkes estimate   =    -942.02557197 Ry
     estimated scf accuracy    <       0.00000006 Ry

     total magnetization       =     0.00 Bohr mag/cell
     absolute magnetization    =    12.37 Bohr mag/cell

     iteration # 14     ecut=    60.00 Ry     beta=0.70
     Davidson diagonalization with overlap
     ethr =  4.38E-11,  avg # of iterations =  1.0

     total cpu time spent up to now is     2974.6 secs

     total energy              =    -942.02557200 Ry
     Harris-Foulkes estimate   =    -942.02557200 Ry
     estimated scf accuracy    <       0.00000002 Ry

     total magnetization       =     0.00 Bohr mag/cell
     absolute magnetization    =    12.36 Bohr mag/cell

     iteration # 15     ecut=    60.00 Ry     beta=0.70
     Davidson diagonalization with overlap
     ethr =  1.46E-11,  avg # of iterations =  1.0

     total cpu time spent up to now is     3115.0 secs

     End of self-consistent calculation

 ------ SPIN UP ------------


          k = 0.0000 0.0000 0.0000 (  7799 PWs)   bands (ev):

    -8.1527  -6.7855  -6.7855  -6.7855  -6.7763  -6.7131  -6.7131  -6.7131
     3.9444   3.9444   3.9444   3.9596   5.2395   5.2395   5.2395   6.4051
     6.4051   6.4218   6.4218   6.4218   6.4697   6.4697   6.4697   7.8300
     7.8300   7.8300   7.8563   7.8563   7.8563   8.7027   8.7027   8.7027
     9.1253   9.1253   9.1529   9.4133   9.4133   9.5506   9.7330   9.7330
     9.7841   9.7841   9.7841  10.0635  10.0635  10.0635  10.3341  10.3341
    10.3341  10.4383  10.4383  10.4383  10.7619  10.7619  10.8876  10.8876
    10.8876  11.0326  11.1093  11.1093  11.1093  11.2280  11.2280  11.2280
    13.3772  13.3772  13.4335  13.4335  13.4335  13.5123  13.5123  13.5123
    13.5562  17.5985  17.6259  17.6259  17.6259  18.1808  18.1808  18.1808
    21.9495  21.9495  21.9495  21.9945  22.5544  22.5544  22.5544  24.2670
    24.2670  24.2670  26.0139  26.0139  26.0533  26.0533  26.0533  26.0891
    26.0891  26.0891  28.5693  28.5693  28.5693  28.6116  28.6116  28.6116
    29.7701  30.9558  30.9558  31.0363  33.2494  33.3013  33.3013  33.3013
    34.3001  34.3001  34.3452  37.9029  37.9029  37.9029  37.9103  37.9103
    37.9795  37.9795  37.9795  38.3080  38.3080  38.5347  38.5347  38.5347
    38.5863  40.6594  40.6595  40.6595  40.7470  40.7470  40.7768  40.7768
    40.7768  40.7975  40.7975  40.7975  43.7290  43.7290  43.7290  44.5548
    44.5549  44.5549  44.5688  44.5688  44.5688  45.2638  45.2638  45.2638
    47.3231  47.8758  47.8758  47.9847  49.4136  49.4136  49.4136  51.4411
    51.4411  51.4411  51.4960  51.4960  51.4960  53.1598  53.1598  53.1598
    53.2572  53.2572  53.2572  53.3035  53.7427  53.7427  53.7427  53.7909
    53.7909  53.8639  53.8639  53.8639  53.8781  53.8781  53.8781  54.0925
    54.6599  54.6599  54.6599  55.0010  55.0010  55.0010  56.2662  56.2667

          k = 0.1766 0.1766-0.1763 (  7814 PWs)   bands (ev):

    -7.9798  -7.0199  -6.7785  -6.7785  -6.7706  -6.7269  -6.7269  -6.7257
     4.2595   4.2595   4.2744   4.5132   5.2530   5.2530   5.2546   6.3193
     6.3355   6.3355   6.5112   6.5747   6.5747   6.5797   6.6394   7.0822
     7.0822   7.1376   7.5792   7.5862   7.5862   7.8428   8.2744   8.2974
     9.1436   9.1991   9.1991   9.5303   9.6783   9.8128   9.8834   9.8834
     9.9515  10.0522  10.0522  10.0857  10.2233  10.3740  10.3848  10.3848
    10.3984  10.4815  10.5302  10.5302  10.7463  10.8367  10.9601  10.9601
    10.9633  11.0310  11.1050  11.1050  11.1254  11.1616  11.1877  11.1877
    13.0486  13.1113  13.1113  13.1285  13.2161  13.2495  13.2495  13.2941
    14.5629  17.4033  18.4695  18.4947  18.4947  18.7280  18.7280  18.7292
    21.7640  21.7640  21.8046  22.3876  22.4741  22.4797  22.4797  23.7815
    23.7815  23.7882  24.9075  24.9475  24.9475  26.4596  26.5229  26.5229
    26.6800  26.7169  27.0962  28.2747  28.3209  28.3209  29.1385  29.1385
    29.1778  30.2888  30.3447  31.9583  32.8956  33.5957  33.6461  33.9844
    33.9844  33.9881  36.1997  36.2172  36.2172  36.2223  36.3014  36.4693
    38.0039  38.0332  38.0332  39.6431  39.8639  39.8639  39.8735  40.4854
    40.5180  40.7370  40.7528  40.7528  41.2365  41.2365  41.2569  41.4242
    41.4276  41.4276  42.3751  42.4911  42.5279  42.5279  42.5729  43.6828
    43.6982  43.6982  44.5140  44.5140  44.5286  45.9035  46.6553  46.7118
    46.7119  47.6564  47.8645  47.9519  48.6024  48.6295  48.6295  49.6840
    50.7097  50.7097  50.7637  51.1780  51.2052  51.2052  51.7770  51.7876
    51.8643  51.8643  52.0304  52.1238  52.1238  52.2131  53.0525  53.0525
    53.1196  53.1324  53.1581  53.1581  55.0891  55.0891  55.1999  55.3315
    55.3315  55.3612  55.3892  55.5324  55.5324  55.6532  55.7546  56.0747

          k =-0.3532-0.3532 0.3525 (  7778 PWs)   bands (ev):

    -7.5297  -7.5297  -6.7603  -6.7603  -6.7521  -6.7521  -6.7516  -6.7516
     4.9582   4.9582   4.9787   4.9787   4.9794   4.9794   5.9858   5.9858
     6.2206   6.2206   6.2846   6.2846   6.3568   6.3568   6.7331   6.7331
     6.9152   6.9152   7.2137   7.2137   7.3853   7.3853   7.5213   7.5213
     9.4854   9.4854   9.6656   9.6656   9.7408   9.7408   9.8718   9.8718
    10.0044  10.0044  10.0537  10.0537  10.3768  10.3768  10.4899  10.4899
    10.5170  10.5170  10.7123  10.7123  10.8061  10.8061  11.0852  11.0852
    11.0981  11.0981  11.1433  11.1433  11.1740  11.1740  11.2713  11.2713
    12.8790  12.8790  12.8837  12.8837  12.8863  12.8863  12.9017  12.9017
    16.2767  16.2767  19.4423  19.4423  19.4924  19.4924  19.5609  19.5609
    21.7084  21.7084  21.7673  21.7673  21.8106  21.8106  23.6551  23.6551
    23.6592  23.6592  23.6729  23.6729  24.1789  24.1789  27.4394  27.4394
    27.4594  27.4594  27.5356  27.5356  28.3492  28.3492  28.3863  28.3863
    31.0887  31.0887  31.1507  31.1507  31.1538  31.1538  32.3607  32.3607
    34.3277  34.3277  34.3978  34.3978  38.7328  38.7328  38.7338  38.7338
    38.7729  38.7729  40.1724  40.1724  40.3371  40.3371  40.3518  40.3518
    40.3737  40.3737  41.0857  41.0857  41.1214  41.1214  41.1382  41.1382
    42.9030  42.9030  42.9479  42.9479  42.9588  42.9588  43.2353  43.2353
    43.2526  43.2526  43.7385  43.7385  43.7491  43.7491  43.7913  43.7913
    44.2025  44.2025  48.4919  48.4919  48.5268  48.5268  51.2575  51.2575
    51.3890  51.3890  51.4066  51.4066  51.7485  51.7485  51.7860  51.7860
    51.7878  51.7878  52.7107  52.7107  52.7557  52.7557  52.8348  52.8348
    52.8497  52.8497  52.8638  52.8638  52.8828  52.8828  53.1272  53.1272
    55.2355  55.2356  55.6081  55.6081  55.7512  55.7512  56.2140  56.2142

          k = 0.3532 0.0003 0.0003 (  7775 PWs)   bands (ev):

    -7.9270  -6.8987  -6.8485  -6.8485  -6.8467  -6.8407  -6.6610  -6.6610
     4.4014   4.4017   4.4017   4.4160   5.1398   5.4287   5.4287   6.4175
     6.4175   6.4316   6.4660   6.4785   6.5222   6.5222   6.5852   6.9529
     6.9529   7.0640   7.0640   7.3471   7.8454   7.8708   8.5221   8.5446
     8.8231   9.3909   9.4839   9.4839   9.6653   9.8212   9.8953   9.8953
     9.9424   9.9456  10.0365  10.1151  10.1151  10.2442  10.2570  10.3829
    10.3829  10.4593  10.4593  10.4959  10.7609  10.8552  10.8552  10.8950
    10.9022  11.0203  11.0862  11.1394  11.1394  11.1896  11.1896  11.2241
    12.7153  12.8739  12.8743  12.8743  13.3548  13.3961  13.4691  13.4691
    15.0106  18.3581  18.3782  18.3782  18.3787  18.4418  19.1218  19.1218
    21.9844  21.9945  21.9945  22.0287  22.5200  22.5200  22.7306  23.4599
    23.4599  24.5750  24.9345  24.9720  24.9720  24.9881  26.6089  26.6417
    26.6722  26.6722  27.1977  27.1977  27.4015  28.4182  28.4589  29.5831
    29.6282  29.9916  30.3992  30.3992  34.5365  34.9957  35.0500  35.0500
    35.0567  35.4519  35.4850  35.5123  35.5123  36.2304  36.2304  36.2534
    36.2594  36.8549  36.8986  38.6321  38.8818  38.8818  40.9911  40.9911
    41.0557  41.1072  41.3332  41.4287  41.4287  41.4409  41.4480  41.5484
    41.5710  41.6047  41.6047  43.0177  43.0693  43.0966  43.0966  44.4742
    44.4742  44.5691  44.5691  44.9577  44.9834  45.9042  46.3169  47.2707
    47.2707  47.3073  47.3480  47.5561  47.6201  47.6678  48.4990  49.5030
    49.5268  49.5268  49.5908  49.5908  49.6333  50.6285  51.3534  51.3534
    51.7479  51.7479  51.9017  51.9017  51.9773  52.0046  52.4357  52.4357
    53.9045  53.9045  53.9416  53.9628  54.2691  54.3282  54.3282  54.3326
    55.7069  55.7644  55.7644  56.1625  56.4265  56.4277  56.5339  56.5344

          k =-0.1766-0.5295 0.5292 (  7804 PWs)   bands (ev):

    -7.5827  -7.2590  -7.0552  -6.8618  -6.8587  -6.6923  -6.6515  -6.6483
     4.8691   4.8732   4.8891   5.2105   5.3245   5.4021   5.4276   6.0737
     6.1019   6.1360   6.1630   6.4767   6.4788   6.6312   6.6453   6.7586
     6.7737   6.8224   6.8896   7.2450   7.2597   7.5998   7.6552   7.9056
     9.3149   9.5041   9.6701   9.7452   9.7995   9.8091   9.8803   9.9826
     9.9830  10.0053  10.0457  10.1295  10.1600  10.1654  10.3199  10.3516
    10.5709  10.5768  10.5858  10.5936  10.7246  10.7567  10.8888  10.9234
    11.0138  11.0412  11.0730  11.1017  11.1770  11.1771  11.1953  11.2537
    12.5767  12.6172  12.6738  12.7669  13.0702  13.0921  13.1939  13.2622
    16.4852  17.3945  18.4521  19.1441  19.1564  20.1611  20.1747  20.2813
    21.2395  21.9464  21.9641  22.2135  22.2453  22.9957  23.0018  23.1307
    23.2061  23.4830  23.8180  23.8460  24.4577  25.1152  25.7208  26.6304
    26.6454  27.1027  27.1350  27.1982  27.2207  27.9633  28.0911  28.5931
    29.4913  30.6032  32.0532  32.0642  32.4947  32.5138  33.0855  33.1544
    34.5262  35.4956  35.9929  36.4210  36.4221  36.5047  36.7292  36.7450
    37.0867  38.7741  38.8080  38.9403  39.8657  40.1841  40.6570  41.4664
    41.5461  41.7440  41.7717  41.8235  41.9378  41.9620  42.3493  42.3547
    42.8154  42.8245  43.1944  43.2027  43.2280  43.5162  43.6846  43.7538
    43.8470  43.8519  43.8645  43.9034  44.1022  44.3233  44.5893  44.7595
    44.8052  45.5838  46.2696  47.1755  47.2249  47.4134  47.9625  48.0607
    48.2335  48.9919  49.6687  49.9102  49.9631  50.7628  50.7942  51.4086
    51.8735  52.1933  52.2180  52.3226  52.5528  52.5914  52.5976  52.6250
    53.5056  54.2548  54.2864  54.3563  54.5744  54.6229  54.7003  55.0298
    55.5759  55.6790  55.9613  56.0257  56.0379  56.0878  56.1305  56.4807

          k = 0.0000-0.3529 0.3529 (  7790 PWs)   bands (ev):

    -7.7194  -7.1055  -7.1055  -6.8105  -6.8105  -6.6991  -6.6925  -6.6420
     4.6786   4.6933   4.9699   4.9699   5.1691   5.1691   5.6057   5.8609
     6.1822   6.1927   6.4088   6.6204   6.6296   6.6296   6.8078   6.8078
     6.8153   7.0514   7.0514   7.0890   7.3469   7.3469   7.5208   8.0045
     9.5129   9.5129   9.6398   9.6968   9.7532   9.7532   9.8908   9.9536
     9.9845  10.0585  10.0660  10.0660  10.0725  10.2041  10.2041  10.3560
    10.5691  10.5968  10.5968  10.6678  10.7541  10.9385  10.9385  10.9605
    11.0567  11.0567  11.0804  11.0884  11.1163  11.1863  11.2468  11.2468
    12.8780  12.8844  12.8951  12.8951  12.9493  12.9819  12.9819  13.1129
    15.8007  17.8560  17.8560  19.1601  19.1601  19.8107  19.8496  19.8781
    21.2933  21.3196  22.3304  22.4771  22.4771  22.5051  22.8018  22.8018
    23.6228  23.6228  23.7175  23.7505  25.6674  25.6674  25.6707  26.6491
    26.6960  27.3300  27.3300  27.4208  27.4811  27.4811  27.8475  30.1491
    30.3869  30.3869  30.5880  31.6648  32.2314  32.2314  33.5531  34.0682
    34.1155  35.0979  35.1229  35.4394  35.9124  35.9124  37.9075  37.9075
    37.9144  38.7321  38.7321  39.5866  39.6171  39.8553  40.5464  40.7991
    40.7991  41.2824  41.3540  41.6359  42.0505  42.0505  42.0866  42.4139
    42.4139  42.6682  42.7028  43.0189  43.0189  43.2772  43.3829  43.3829
    43.4248  43.4901  43.7947  43.7947  44.3891  44.4000  45.1849  45.1849
    46.2091  46.2091  46.8107  46.8107  47.1773  47.3722  48.2835  48.7312
    49.0337  49.0337  50.8261  50.8261  51.0016  51.0016  51.4542  51.4795
    51.4795  51.5610  51.9052  51.9447  52.6603  52.7235  53.1589  53.1589
    53.6121  53.7874  53.8474  54.5094  54.5167  54.5229  54.5229  55.3980
    55.3980  55.5946  55.6932  56.0811  56.0811  56.2419  56.4067  56.5867

          k =-0.7064-0.0007-0.0007 (  7844 PWs)   bands (ev):

    -7.3935  -7.3935  -6.9097  -6.9097  -6.9051  -6.9050  -6.6078  -6.6078
     4.9273   4.9273   4.9330   4.9330   5.6699   5.6699   6.0055   6.0055
     6.0069   6.0069   6.3005   6.3005   6.5339   6.5339   6.5816   6.5816
     6.6225   6.6225   6.6251   6.6251   8.0251   8.0252   8.0530   8.0530
     9.1120   9.1120   9.7855   9.7855   9.8641   9.8641   9.8873   9.8873
     9.8975   9.8975  10.0176  10.0176  10.1994  10.1994  10.3336  10.3336
    10.3545  10.3545  10.4198  10.4198  10.7674  10.7674  10.8542  10.8542
    10.9940  10.9940  11.0751  11.0751  11.1782  11.1782  11.1899  11.1900
    12.3008  12.3008  12.5598  12.5598  13.3482  13.3482  13.4426  13.4426
    17.4521  17.4521  19.0398  19.0398  19.0411  19.0411  20.5094  20.5094
    22.6603  22.6603  22.6940  22.6940  22.9261  22.9261  22.9481  22.9481
    23.0945  23.0945  23.1046  23.1046  25.1308  25.1308  25.4457  25.4457
    25.5663  25.5663  27.3663  27.3663  27.4147  27.4147  28.5041  28.5041
    28.5439  28.5439  33.7872  33.7872  33.8307  33.8307  34.1343  34.1343
    34.1612  34.1612  35.5254  35.5254  35.5541  35.5541  37.2852  37.2852
    37.3131  37.3131  39.6892  39.6892  39.8329  39.8329  41.1162  41.1162
    41.1741  41.1741  41.3995  41.3995  41.4655  41.4655  42.6692  42.6692
    42.6738  42.6738  43.5034  43.5034  43.9931  43.9931  43.9954  43.9954
    44.4510  44.4510  44.5042  44.5042  44.5522  44.5522  45.4563  45.4563
    46.6504  46.6504  46.6867  46.6867  46.7670  46.7670  46.7730  46.7730
    47.9389  47.9389  48.0318  48.0318  50.0381  50.0381  50.1669  50.1669
    51.8726  51.8726  51.9212  51.9212  51.9397  51.9397  52.2666  52.2666
    53.4778  53.4778  54.7023  54.7023  54.7488  54.7488  55.1099  55.1099
    55.1886  55.1886  55.2363  55.2363  55.3367  55.3367  56.1410  56.1410

          k = 0.1769 0.1769 0.1769 (  7796 PWs)   bands (ev):

    -7.9787  -7.0124  -6.7794  -6.7794  -6.7794  -6.7262  -6.7262  -6.7262
     4.2609   4.2609   4.2609   4.5302   5.2538   5.2538   5.2538   6.3835
     6.3835   6.3835   6.5083   6.5083   6.5083   6.5759   6.5759   7.1131
     7.1131   7.1131   7.5860   7.5860   7.5860   7.8674   8.3265   8.3265
     9.1247   9.1247   9.1247   9.4721   9.4721   9.8479   9.9036   9.9036
     9.9036  10.1166  10.1166  10.1166  10.4418  10.4418  10.4418  10.4735
    10.4735  10.5678  10.5678  10.5678  10.7612  10.7612  10.7833  10.7833
    10.7833  10.8881  11.1014  11.1014  11.1014  11.2382  11.2382  11.2382
    13.1700  13.1700  13.1828  13.1828  13.1828  13.1858  13.1858  13.1858
    14.5666  17.3920  18.4907  18.4907  18.4907  18.7289  18.7289  18.7289
    21.7739  21.7739  21.7739  22.4294  22.4959  22.4959  22.4959  23.7757
    23.7757  23.7757  24.9521  24.9521  24.9521  26.4956  26.4956  26.4956
    26.6451  26.6451  27.1354  28.2827  28.2827  28.2827  29.1773  29.1773
    29.1773  30.2800  30.2800  31.9445  32.8474  33.5962  33.5962  34.0307
    34.0307  34.0307  36.2471  36.2471  36.2678  36.2678  36.2678  36.5431
    37.9774  37.9774  37.9774  39.6922  39.8010  39.8010  39.8010  40.5092
    40.5092  40.7399  40.7399  40.7399  41.2196  41.2196  41.2196  41.3390
    41.3390  41.3390  42.4443  42.4443  42.6502  42.6502  42.6502  43.7187
    43.7187  43.7187  44.4623  44.4623  44.4623  45.9819  46.8216  46.8216
    46.8216  47.8114  47.8783  47.8783  48.6582  48.6582  48.6582  49.7320
    50.6995  50.6995  50.6995  51.1381  51.1381  51.1381  51.8486  51.8486
    51.8765  51.8765  51.8765  52.0649  52.0649  52.0649  53.0579  53.0579
    53.0579  53.1099  53.1099  53.1099  55.0936  55.0936  55.0936  55.3038
    55.3038  55.3038  55.5190  55.5190  55.5190  55.6900  55.6900  55.8455

          k =-0.3529-0.3529 0.7058 (  7791 PWs)   bands (ev):

    -7.7174  -7.1066  -7.1003  -6.8133  -6.8133  -6.6977  -6.6977  -6.6396
     4.6817   4.6817   4.9826   4.9940   5.1501   5.1501   5.6090   5.8720
     6.2131   6.2131   6.4723   6.5716   6.5716   6.6699   6.7574   6.7966
     6.9061   7.0507   7.0507   7.1005   7.1005   7.3715   7.7136   8.0069
     9.4087   9.4595   9.4902   9.4902   9.6278   9.9128   9.9128   9.9718
    10.0833  10.0833  10.1510  10.2307  10.2893  10.4073  10.4073  10.4076
    10.4813  10.5008  10.5008  10.5962  10.6020  10.6641  10.8925  10.8925
    10.9594  11.1131  11.1131  11.1863  11.2136  11.2136  11.2248  11.2430
    12.8832  12.8878  12.8883  12.8883  12.8998  13.0397  13.0397  13.0660
    15.8039  17.8504  17.8554  19.1509  19.1509  19.8112  19.8811  19.8811
    21.2947  21.2947  22.3293  22.5104  22.5134  22.5135  22.8191  22.8332
    23.6172  23.6172  23.7314  23.7314  25.6161  25.6619  25.6990  26.6890
    26.6890  27.2777  27.3044  27.4207  27.4754  27.4754  27.8062  30.1123
    30.3996  30.3996  30.6277  31.6131  32.2469  32.2922  33.5286  34.1143
    34.1143  35.0989  35.0989  35.4329  35.8756  35.9586  37.8633  37.8707
    37.8894  38.7125  38.7125  39.6557  39.6557  39.9247  40.5596  40.7425
    40.8456  41.2076  41.2076  41.6208  42.0425  42.0425  42.1075  42.3243
    42.3976  42.6830  42.6830  43.0754  43.0754  43.2837  43.4297  43.4733
    43.5124  43.5124  43.7559  43.7559  44.3610  44.4756  45.2095  45.2095
    46.2081  46.2081  46.8214  46.9302  47.1972  47.3730  48.3066  48.7036
    49.0073  49.0984  50.7160  50.7160  51.0215  51.0215  51.4675  51.4675
    51.4894  51.5402  51.9506  52.0029  52.5652  52.5652  53.0824  53.0824
    53.6914  53.8398  53.8398  54.4561  54.4713  54.4877  54.4877  55.3324
    55.6379  55.6380  55.6894  55.8040  56.0833  56.2740  56.4448  56.4448

          k =-0.1763-0.1763 0.5295 (  7812 PWs)   bands (ev):

    -7.5836  -7.2567  -7.0529  -6.8643  -6.8643  -6.6865  -6.6506  -6.6506
     4.8795   4.8795   4.8843   5.1477   5.3991   5.4098   5.4098   6.0165
     6.1242   6.1242   6.2403   6.4611   6.4611   6.5416   6.7093   6.7210
     6.7210   6.9409   6.9409   7.0499   7.4041   7.6360   7.6499   7.8781
     9.2381   9.4113   9.7885   9.7885   9.8652   9.8652   9.8857   9.8919
     9.9035  10.0198  10.0517  10.0517  10.2447  10.2910  10.3394  10.3394
    10.5067  10.5372  10.5372  10.5546  10.7413  10.7941  10.9423  10.9423
    11.0630  11.0630  11.0749  11.1179  11.1202  11.1281  11.1905  11.1905
    12.5783  12.6374  12.7205  12.7205  13.0896  13.1709  13.1709  13.1878
    16.4846  17.3953  18.4530  19.1491  19.1491  20.1791  20.1791  20.2510
    21.2554  21.9582  21.9582  22.2311  22.2311  22.9786  22.9786  23.1202
    23.2070  23.4759  23.8538  23.8538  24.4453  25.1255  25.7425  26.6541
    26.6541  27.1409  27.1494  27.1494  27.2081  27.9115  28.0597  28.5593
    29.5249  30.6666  32.0507  32.0507  32.5131  32.5131  33.0960  33.1240
    34.5168  35.5397  35.9659  36.4333  36.4333  36.5050  36.7267  36.7267
    37.0554  38.8215  38.8215  38.9037  39.8430  40.1637  40.6152  41.5381
    41.6012  41.6800  41.6800  41.8585  41.9262  42.0325  42.2866  42.2866
    42.8584  42.8584  43.1943  43.1943  43.2043  43.4997  43.7801  43.7801
    43.8429  43.8432  43.9125  43.9125  44.0832  44.2549  44.5857  44.8138
    44.8138  45.6239  46.3503  47.1652  47.1994  47.3940  48.0111  48.0111
    48.2912  49.0818  49.7357  49.8572  49.8572  50.6589  50.6589  51.4297
    51.8392  52.1223  52.1223  52.3566  52.5324  52.5324  52.6446  52.6446
    53.4906  54.2767  54.2767  54.3349  54.5466  54.5466  54.6680  55.0075
    55.6996  55.6997  55.8240  56.0300  56.1651  56.1651  56.3075  56.4283

          k =-0.8827 0.1759 0.1759 (  7811 PWs)   bands (ev):

    -7.5807  -7.2538  -7.0563  -6.8645  -6.8645  -6.6897  -6.6505  -6.6505
     4.8724   4.8821   4.8821   5.1915   5.3457   5.4072   5.4072   6.1183
     6.1296   6.1296   6.1704   6.5367   6.5531   6.5531   6.5999   6.5999
     6.7068   6.9697   6.9697   7.1559   7.2757   7.6388   7.6418   7.9277
     9.2110   9.3984   9.6062   9.6062   9.6368   9.9007   9.9347   9.9347
    10.1297  10.1309  10.2647  10.2647  10.2842  10.3935  10.3997  10.3997
    10.4174  10.4857  10.4857  10.4950  10.6888  10.7267  10.7267  10.8108
    10.9168  11.0906  11.1169  11.1437  11.1437  11.2047  11.2047  11.2674
    12.5351  12.6740  12.7231  12.7231  13.1149  13.1707  13.1722  13.1722
    16.4856  17.3942  18.4500  19.1469  19.1469  20.1654  20.1654  20.2762
    21.2352  21.9926  21.9926  22.2588  22.2588  22.9672  22.9672  23.1257
    23.2451  23.5107  23.8288  23.8288  24.4309  25.1525  25.6889  26.6388
    26.6388  27.1416  27.1416  27.1595  27.1818  27.9059  28.0594  28.5452
    29.5389  30.6237  32.0744  32.0744  32.5435  32.5435  33.1164  33.1340
    34.4781  35.4623  35.9436  36.3997  36.3997  36.4981  36.7219  36.7219
    37.0448  38.8343  38.8343  38.9371  39.8544  40.2430  40.7008  41.5666
    41.5813  41.6674  41.6674  41.8361  41.9445  41.9973  42.2944  42.2944
    42.7812  42.7812  43.2063  43.2063  43.2126  43.4416  43.7723  43.7723
    43.8124  43.8706  43.9128  43.9128  44.1720  44.2712  44.6598  44.8769
    44.8769  45.7145  46.2660  47.1285  47.2137  47.4551  47.9988  47.9988
    48.2647  48.9409  49.6672  49.8643  49.8643  50.6576  50.6576  51.4653
    51.8762  52.1149  52.1149  52.4038  52.5452  52.5452  52.6217  52.6217
    53.5107  54.2800  54.2860  54.2860  54.6254  54.6254  54.6407  55.1791
    55.5655  55.6785  55.6786  56.0801  56.1369  56.1370  56.2148  56.4980

          k =-0.7061 0.3525-0.0003 (  7826 PWs)   bands (ev):

    -7.2384  -7.2384  -7.2356  -7.2349  -6.6769  -6.6699  -6.6699  -6.6697
     5.1879   5.1888   5.1888   5.2345   5.2817   5.4452   5.4452   5.5562
     6.1241   6.1572   6.1572   6.1865   6.5055   6.5055   6.5321   6.6618
     6.7799   7.1596   7.1596   7.3517   7.3596   7.3936   7.3936   7.4549
     9.5642   9.5903   9.5903   9.6594   9.8289   9.8766   9.8766   9.9013
     9.9577  10.1156  10.1344  10.1344  10.1873  10.1873  10.2412  10.3070
    10.4567  10.5040  10.5040  10.5255  10.7952  10.7952  10.8212  10.8393
    11.0196  11.0326  11.0326  11.1224  11.1401  11.1482  11.2101  11.2101
    12.6091  12.7245  12.7245  12.8380  12.9921  13.0321  13.0321  13.0745
    17.8029  17.8220  17.8220  17.8421  20.6207  20.7083  20.7083  20.7503
    21.5299  21.5334  21.5334  21.6245  22.7073  22.7260  22.7260  22.7363
    24.2308  24.2406  24.2406  24.2715  24.4367  24.4999  24.4999  24.5244
    26.6709  26.6709  26.6861  26.6968  28.0871  28.1504  28.1504  28.1727
    30.7907  30.7984  30.8239  30.8239  34.0306  34.1116  34.1116  34.1193
    34.1480  34.1480  34.1771  34.1790  37.6120  37.6807  37.6899  37.6899
    37.7357  37.7510  37.7661  37.7661  41.3437  41.3437  41.3928  41.3928
    41.4051  41.4111  41.4203  41.4836  42.5673  42.5765  42.6126  42.6126
    42.9739  43.0088  43.0088  43.1044  43.5145  43.6055  43.6055  43.7415
    44.2870  44.3841  44.3841  44.4100  44.8267  44.8267  44.9013  44.9578
    45.8136  45.9087  45.9087  45.9894  46.7132  46.7251  46.7251  46.7379
    46.9323  46.9353  46.9471  46.9471  50.3750  50.3929  50.3929  50.5116
    52.0378  52.0941  52.1200  52.1200  53.5100  53.5100  53.5317  53.5379
    55.0286  55.1431  55.1431  55.3795  55.3916  55.4092  55.4092  55.4366
    55.5820  55.9100  55.9100  55.9608  56.0122  56.1119  56.1119  56.1782

          k =-0.3539-0.3539-0.3539 (  7786 PWs)   bands (ev):

    -7.5301  -7.5214  -6.7663  -6.7663  -6.7663  -6.7463  -6.7463  -6.7463
     4.9234   4.9234   4.9234   5.0248   5.0248   5.0248   5.9851   6.0280
     6.1611   6.1611   6.1611   6.5973   6.5973   6.5973   6.6322   6.6322
     6.6322   6.8541   6.8541   7.3339   7.3339   7.3339   7.7461   7.7461
     9.3418   9.3418   9.3418   9.5276   9.5276   9.9550   9.9597   9.9598
     9.9598  10.3162  10.3162  10.3162  10.3400  10.3400  10.3400  10.5795
    10.5795  10.6715  10.6715  10.6715  10.7294  10.8939  10.8939  10.8939
    11.0896  11.0896  11.0896  11.1370  11.1370  11.2458  11.2458  11.2458
    12.8791  12.8791  12.8791  12.8993  12.8993  12.9046  12.9046  12.9046
    16.2048  16.3559  19.4099  19.4099  19.4099  19.5708  19.5708  19.5708
    21.7359  21.7359  21.7360  21.8695  21.8695  21.8695  23.6261  23.6261
    23.6261  23.6607  23.6607  23.6607  24.1601  24.2668  27.4266  27.4266
    27.4266  27.5066  27.5066  27.5066  28.2970  28.2970  28.3465  28.3465
    31.1556  31.1556  31.1556  31.1822  31.1822  31.1822  32.2823  32.3578
    34.3409  34.3409  34.3418  34.3418  38.6694  38.6694  38.6694  38.7562
    38.7562  38.7562  40.1488  40.3301  40.3301  40.3301  40.3317  40.4351
    40.4351  40.4351  41.0174  41.0174  41.0174  41.1706  41.1706  41.1706
    42.8804  42.8804  42.8804  42.9094  42.9094  42.9094  43.1939  43.1939
    43.2403  43.2403  43.7958  43.7958  43.7958  43.8886  43.8886  43.8886
    44.2538  44.3994  48.4811  48.4811  48.6073  48.6073  51.2766  51.2766
    51.2766  51.3302  51.3302  51.3302  51.6664  51.6664  51.6664  51.7521
    51.7521  51.7521  52.7526  52.7526  52.7526  52.7761  52.7761  52.7761
    52.8417  52.8417  52.8417  52.8551  52.8551  52.8551  52.9177  53.4527
    55.2271  55.2271  55.2271  55.7415  55.7415  55.7416  56.2194  56.2195

 ------ SPIN DOWN ----------


          k = 0.0000 0.0000 0.0000 (  7799 PWs)   bands (ev):

    -8.1527  -6.7855  -6.7855  -6.7855  -6.7763  -6.7131  -6.7131  -6.7131
     3.9444   3.9444   3.9444   3.9596   5.2395   5.2395   5.2395   6.4051
     6.4051   6.4218   6.4218   6.4218   6.4697   6.4697   6.4697   7.8300
     7.8300   7.8300   7.8563   7.8563   7.8563   8.7027   8.7027   8.7027
     9.1253   9.1253   9.1529   9.4133   9.4133   9.5506   9.7330   9.7330
     9.7841   9.7841   9.7841  10.0635  10.0635  10.0635  10.3341  10.3341
    10.3341  10.4383  10.4383  10.4383  10.7619  10.7619  10.8876  10.8876
    10.8876  11.0326  11.1093  11.1093  11.1093  11.2280  11.2280  11.2280
    13.3772  13.3772  13.4335  13.4335  13.4335  13.5123  13.5123  13.5123
    13.5562  17.5985  17.6259  17.6259  17.6259  18.1808  18.1808  18.1808
    21.9495  21.9495  21.9495  21.9945  22.5544  22.5544  22.5544  24.2670
    24.2670  24.2670  26.0139  26.0139  26.0533  26.0533  26.0533  26.0891
    26.0891  26.0891  28.5693  28.5693  28.5693  28.6116  28.6116  28.6116
    29.7701  30.9558  30.9558  31.0363  33.2494  33.3013  33.3013  33.3013
    34.3001  34.3001  34.3452  37.9029  37.9029  37.9029  37.9103  37.9103
    37.9795  37.9795  37.9795  38.3080  38.3080  38.5347  38.5347  38.5347
    38.5863  40.6594  40.6595  40.6595  40.7470  40.7470  40.7768  40.7768
    40.7768  40.7975  40.7975  40.7975  43.7290  43.7290  43.7290  44.5548
    44.5549  44.5549  44.5688  44.5688  44.5688  45.2638  45.2638  45.2638
    47.3231  47.8758  47.8758  47.9847  49.4136  49.4136  49.4136  51.4411
    51.4411  51.4411  51.4960  51.4960  51.4960  53.1598  53.1598  53.1598
    53.2572  53.2572  53.2572  53.3035  53.7427  53.7427  53.7427  53.7909
    53.7909  53.8639  53.8639  53.8639  53.8781  53.8781  53.8781  54.0925
    54.6599  54.6599  54.6599  55.0010  55.0010  55.0010  56.2661  56.2664

          k = 0.1766 0.1766-0.1763 (  7814 PWs)   bands (ev):

    -7.9798  -7.0199  -6.7785  -6.7785  -6.7706  -6.7269  -6.7269  -6.7257
     4.2595   4.2595   4.2744   4.5132   5.2530   5.2530   5.2546   6.3193
     6.3355   6.3355   6.5112   6.5747   6.5747   6.5797   6.6394   7.0822
     7.0822   7.1376   7.5792   7.5862   7.5862   7.8428   8.2744   8.2974
     9.1436   9.1991   9.1991   9.5303   9.6783   9.8128   9.8834   9.8834
     9.9515  10.0522  10.0522  10.0857  10.2233  10.3740  10.3848  10.3848
    10.3984  10.4815  10.5302  10.5302  10.7463  10.8367  10.9601  10.9601
    10.9633  11.0310  11.1050  11.1050  11.1254  11.1616  11.1877  11.1877
    13.0486  13.1113  13.1113  13.1285  13.2161  13.2495  13.2495  13.2941
    14.5629  17.4033  18.4695  18.4946  18.4947  18.7280  18.7280  18.7292
    21.7640  21.7640  21.8046  22.3876  22.4741  22.4797  22.4797  23.7815
    23.7815  23.7882  24.9075  24.9475  24.9475  26.4596  26.5229  26.5229
    26.6800  26.7169  27.0962  28.2747  28.3209  28.3209  29.1385  29.1385
    29.1778  30.2888  30.3447  31.9583  32.8956  33.5957  33.6461  33.9844
    33.9844  33.9881  36.1997  36.2172  36.2172  36.2223  36.3014  36.4693
    38.0039  38.0332  38.0332  39.6431  39.8639  39.8639  39.8735  40.4854
    40.5180  40.7370  40.7528  40.7528  41.2365  41.2365  41.2569  41.4242
    41.4276  41.4276  42.3751  42.4911  42.5279  42.5279  42.5729  43.6828
    43.6982  43.6982  44.5140  44.5140  44.5286  45.9035  46.6553  46.7118
    46.7119  47.6564  47.8645  47.9519  48.6024  48.6295  48.6295  49.6840
    50.7097  50.7097  50.7637  51.1780  51.2052  51.2052  51.7770  51.7876
    51.8643  51.8643  52.0304  52.1238  52.1238  52.2131  53.0525  53.0525
    53.1196  53.1324  53.1581  53.1581  55.0891  55.0891  55.1999  55.3315
    55.3315  55.3612  55.3892  55.5324  55.5324  55.6532  55.7546  56.0747

          k =-0.3532-0.3532 0.3525 (  7778 PWs)   bands (ev):

    -7.5297  -7.5297  -6.7603  -6.7603  -6.7521  -6.7521  -6.7516  -6.7516
     4.9582   4.9582   4.9787   4.9787   4.9794   4.9794   5.9858   5.9858
     6.2206   6.2206   6.2846   6.2846   6.3568   6.3568   6.7331   6.7331
     6.9152   6.9152   7.2137   7.2137   7.3853   7.3853   7.5213   7.5213
     9.4854   9.4854   9.6656   9.6656   9.7408   9.7408   9.8718   9.8718
    10.0044  10.0044  10.0537  10.0537  10.3768  10.3768  10.4899  10.4899
    10.5170  10.5170  10.7123  10.7123  10.8061  10.8061  11.0852  11.0852
    11.0981  11.0981  11.1433  11.1433  11.1740  11.1740  11.2713  11.2713
    12.8790  12.8790  12.8837  12.8837  12.8863  12.8863  12.9017  12.9017
    16.2767  16.2767  19.4423  19.4423  19.4924  19.4924  19.5609  19.5609
    21.7084  21.7084  21.7673  21.7673  21.8106  21.8106  23.6551  23.6551
    23.6592  23.6592  23.6729  23.6729  24.1789  24.1789  27.4394  27.4394
    27.4594  27.4594  27.5356  27.5356  28.3492  28.3492  28.3863  28.3863
    31.0887  31.0887  31.1507  31.1507  31.1538  31.1538  32.3607  32.3607
    34.3277  34.3277  34.3978  34.3978  38.7328  38.7328  38.7338  38.7338
    38.7729  38.7729  40.1724  40.1724  40.3371  40.3371  40.3518  40.3518
    40.3737  40.3737  41.0857  41.0857  41.1214  41.1214  41.1382  41.1382
    42.9030  42.9030  42.9479  42.9479  42.9588  42.9588  43.2353  43.2353
    43.2526  43.2526  43.7385  43.7385  43.7491  43.7491  43.7913  43.7913
    44.2025  44.2025  48.4919  48.4919  48.5268  48.5268  51.2575  51.2575
    51.3890  51.3890  51.4066  51.4066  51.7485  51.7485  51.7860  51.7860
    51.7878  51.7878  52.7107  52.7107  52.7557  52.7557  52.8348  52.8348
    52.8497  52.8497  52.8638  52.8638  52.8828  52.8828  53.1272  53.1272
    55.2356  55.2356  55.6081  55.6081  55.7512  55.7512  56.2140  56.2142

          k = 0.3532 0.0003 0.0003 (  7775 PWs)   bands (ev):

    -7.9270  -6.8987  -6.8485  -6.8485  -6.8467  -6.8407  -6.6610  -6.6610
     4.4014   4.4017   4.4017   4.4160   5.1398   5.4287   5.4287   6.4175
     6.4175   6.4316   6.4660   6.4785   6.5222   6.5222   6.5852   6.9529
     6.9529   7.0640   7.0640   7.3471   7.8454   7.8708   8.5221   8.5446
     8.8231   9.3909   9.4839   9.4839   9.6653   9.8212   9.8953   9.8953
     9.9424   9.9456  10.0365  10.1151  10.1151  10.2442  10.2570  10.3829
    10.3829  10.4593  10.4593  10.4959  10.7609  10.8552  10.8552  10.8950
    10.9022  11.0203  11.0862  11.1394  11.1394  11.1896  11.1896  11.2241
    12.7153  12.8739  12.8743  12.8743  13.3548  13.3961  13.4691  13.4691
    15.0106  18.3581  18.3782  18.3782  18.3787  18.4418  19.1218  19.1218
    21.9844  21.9945  21.9945  22.0287  22.5200  22.5200  22.7306  23.4599
    23.4599  24.5750  24.9345  24.9720  24.9720  24.9881  26.6089  26.6417
    26.6722  26.6722  27.1977  27.1977  27.4015  28.4182  28.4589  29.5831
    29.6282  29.9916  30.3992  30.3992  34.5365  34.9957  35.0500  35.0500
    35.0567  35.4519  35.4850  35.5123  35.5123  36.2304  36.2304  36.2534
    36.2594  36.8549  36.8986  38.6321  38.8818  38.8818  40.9911  40.9911
    41.0557  41.1072  41.3332  41.4287  41.4287  41.4409  41.4480  41.5484
    41.5710  41.6047  41.6047  43.0177  43.0693  43.0966  43.0966  44.4742
    44.4742  44.5691  44.5691  44.9577  44.9834  45.9042  46.3169  47.2707
    47.2707  47.3073  47.3480  47.5561  47.6201  47.6678  48.4990  49.5030
    49.5268  49.5268  49.5908  49.5908  49.6333  50.6285  51.3534  51.3534
    51.7479  51.7479  51.9017  51.9017  51.9773  52.0046  52.4357  52.4357
    53.9045  53.9045  53.9416  53.9628  54.2691  54.3282  54.3282  54.3326
    55.7069  55.7644  55.7644  56.1624  56.4265  56.4266  56.5338  56.5767

          k =-0.1766-0.5295 0.5292 (  7804 PWs)   bands (ev):

    -7.5827  -7.2590  -7.0552  -6.8618  -6.8587  -6.6923  -6.6515  -6.6483
     4.8691   4.8732   4.8891   5.2105   5.3245   5.4021   5.4276   6.0737
     6.1019   6.1360   6.1630   6.4767   6.4788   6.6312   6.6453   6.7586
     6.7737   6.8224   6.8896   7.2450   7.2597   7.5998   7.6552   7.9056
     9.3149   9.5041   9.6701   9.7452   9.7995   9.8091   9.8803   9.9826
     9.9830  10.0053  10.0457  10.1295  10.1600  10.1654  10.3199  10.3516
    10.5709  10.5768  10.5858  10.5936  10.7246  10.7567  10.8888  10.9234
    11.0138  11.0412  11.0730  11.1017  11.1770  11.1771  11.1953  11.2537
    12.5767  12.6172  12.6738  12.7669  13.0702  13.0921  13.1939  13.2622
    16.4852  17.3945  18.4521  19.1441  19.1564  20.1611  20.1747  20.2813
    21.2395  21.9464  21.9641  22.2135  22.2453  22.9957  23.0018  23.1307
    23.2061  23.4830  23.8180  23.8460  24.4577  25.1152  25.7208  26.6304
    26.6454  27.1027  27.1350  27.1982  27.2207  27.9633  28.0911  28.5931
    29.4913  30.6032  32.0532  32.0642  32.4947  32.5138  33.0855  33.1544
    34.5262  35.4956  35.9929  36.4210  36.4221  36.5047  36.7292  36.7450
    37.0867  38.7741  38.8080  38.9403  39.8657  40.1841  40.6570  41.4664
    41.5461  41.7440  41.7717  41.8235  41.9378  41.9620  42.3493  42.3547
    42.8154  42.8245  43.1944  43.2027  43.2280  43.5162  43.6846  43.7538
    43.8470  43.8519  43.8645  43.9034  44.1022  44.3233  44.5893  44.7595
    44.8052  45.5838  46.2696  47.1755  47.2249  47.4134  47.9625  48.0607
    48.2335  48.9919  49.6687  49.9102  49.9631  50.7628  50.7942  51.4086
    51.8735  52.1933  52.2180  52.3226  52.5528  52.5914  52.5976  52.6250
    53.5056  54.2548  54.2864  54.3563  54.5744  54.6229  54.7003  55.0298
    55.5760  55.6790  55.9613  56.0257  56.0378  56.0878  56.1305  56.4802

          k = 0.0000-0.3529 0.3529 (  7790 PWs)   bands (ev):

    -7.7194  -7.1055  -7.1055  -6.8105  -6.8105  -6.6991  -6.6925  -6.6420
     4.6786   4.6933   4.9699   4.9699   5.1691   5.1691   5.6057   5.8609
     6.1822   6.1927   6.4088   6.6204   6.6296   6.6296   6.8078   6.8078
     6.8153   7.0514   7.0514   7.0890   7.3469   7.3469   7.5208   8.0045
     9.5129   9.5129   9.6398   9.6968   9.7532   9.7532   9.8908   9.9536
     9.9845  10.0585  10.0660  10.0660  10.0725  10.2041  10.2041  10.3560
    10.5691  10.5968  10.5968  10.6678  10.7541  10.9385  10.9385  10.9605
    11.0567  11.0567  11.0804  11.0884  11.1163  11.1863  11.2468  11.2468
    12.8780  12.8844  12.8951  12.8951  12.9493  12.9819  12.9819  13.1129
    15.8007  17.8560  17.8560  19.1601  19.1601  19.8107  19.8496  19.8781
    21.2933  21.3196  22.3304  22.4771  22.4771  22.5051  22.8018  22.8018
    23.6228  23.6228  23.7175  23.7505  25.6674  25.6674  25.6707  26.6491
    26.6960  27.3300  27.3300  27.4208  27.4811  27.4811  27.8475  30.1491
    30.3869  30.3869  30.5880  31.6648  32.2314  32.2314  33.5531  34.0682
    34.1155  35.0979  35.1229  35.4394  35.9124  35.9124  37.9075  37.9075
    37.9144  38.7321  38.7321  39.5866  39.6171  39.8553  40.5464  40.7991
    40.7991  41.2824  41.3540  41.6359  42.0505  42.0505  42.0866  42.4139
    42.4139  42.6682  42.7028  43.0189  43.0189  43.2772  43.3829  43.3829
    43.4248  43.4901  43.7947  43.7947  44.3891  44.4000  45.1849  45.1849
    46.2091  46.2091  46.8107  46.8107  47.1773  47.3722  48.2835  48.7312
    49.0337  49.0337  50.8261  50.8261  51.0016  51.0016  51.4542  51.4795
    51.4795  51.5610  51.9052  51.9447  52.6603  52.7235  53.1589  53.1589
    53.6121  53.7874  53.8474  54.5094  54.5167  54.5229  54.5229  55.3980
    55.3980  55.5946  55.6932  56.0811  56.0811  56.2420  56.4067  56.5867

          k =-0.7064-0.0007-0.0007 (  7844 PWs)   bands (ev):

    -7.3935  -7.3935  -6.9097  -6.9097  -6.9051  -6.9050  -6.6078  -6.6078
     4.9273   4.9273   4.9330   4.9330   5.6699   5.6699   6.0055   6.0055
     6.0069   6.0069   6.3005   6.3005   6.5339   6.5339   6.5816   6.5816
     6.6225   6.6225   6.6251   6.6251   8.0251   8.0252   8.0530   8.0530
     9.1120   9.1120   9.7855   9.7855   9.8641   9.8641   9.8873   9.8873
     9.8975   9.8975  10.0176  10.0176  10.1994  10.1994  10.3336  10.3336
    10.3545  10.3545  10.4198  10.4198  10.7674  10.7674  10.8542  10.8542
    10.9940  10.9940  11.0751  11.0751  11.1782  11.1782  11.1899  11.1900
    12.3008  12.3008  12.5598  12.5598  13.3482  13.3482  13.4426  13.4426
    17.4521  17.4521  19.0398  19.0398  19.0411  19.0411  20.5094  20.5094
    22.6603  22.6603  22.6940  22.6940  22.9261  22.9261  22.9481  22.9481
    23.0945  23.0945  23.1046  23.1046  25.1308  25.1308  25.4457  25.4457
    25.5663  25.5663  27.3663  27.3663  27.4147  27.4147  28.5041  28.5041
    28.5439  28.5439  33.7872  33.7872  33.8307  33.8307  34.1343  34.1343
    34.1612  34.1612  35.5254  35.5254  35.5541  35.5541  37.2852  37.2852
    37.3131  37.3131  39.6892  39.6892  39.8329  39.8329  41.1162  41.1162
    41.1741  41.1741  41.3995  41.3995  41.4655  41.4655  42.6692  42.6692
    42.6738  42.6738  43.5034  43.5034  43.9931  43.9931  43.9954  43.9954
    44.4510  44.4510  44.5042  44.5042  44.5522  44.5522  45.4563  45.4563
    46.6504  46.6504  46.6867  46.6867  46.7670  46.7670  46.7730  46.7730
    47.9389  47.9389  48.0318  48.0318  50.0381  50.0381  50.1669  50.1669
    51.8726  51.8726  51.9212  51.9212  51.9397  51.9397  52.2666  52.2666
    53.4778  53.4778  54.7023  54.7023  54.7488  54.7488  55.1099  55.1099
    55.1886  55.1886  55.2363  55.2363  55.3367  55.3367  56.1410  56.1410

          k = 0.1769 0.1769 0.1769 (  7796 PWs)   bands (ev):

    -7.9787  -7.0124  -6.7794  -6.7794  -6.7794  -6.7262  -6.7262  -6.7262
     4.2609   4.2609   4.2609   4.5302   5.2538   5.2538   5.2538   6.3835
     6.3835   6.3835   6.5083   6.5083   6.5083   6.5759   6.5759   7.1131
     7.1131   7.1131   7.5860   7.5860   7.5860   7.8674   8.3265   8.3265
     9.1247   9.1247   9.1247   9.4721   9.4721   9.8479   9.9036   9.9036
     9.9036  10.1166  10.1166  10.1166  10.4418  10.4418  10.4418  10.4735
    10.4735  10.5678  10.5678  10.5678  10.7612  10.7612  10.7833  10.7833
    10.7833  10.8881  11.1014  11.1014  11.1014  11.2382  11.2382  11.2382
    13.1700  13.1700  13.1828  13.1828  13.1828  13.1858  13.1858  13.1858
    14.5666  17.3920  18.4907  18.4907  18.4907  18.7289  18.7289  18.7289
    21.7739  21.7739  21.7739  22.4294  22.4959  22.4959  22.4959  23.7757
    23.7757  23.7757  24.9521  24.9521  24.9521  26.4956  26.4956  26.4956
    26.6451  26.6451  27.1354  28.2827  28.2827  28.2827  29.1773  29.1773
    29.1773  30.2800  30.2800  31.9445  32.8474  33.5962  33.5962  34.0307
    34.0307  34.0307  36.2471  36.2471  36.2678  36.2678  36.2678  36.5431
    37.9774  37.9774  37.9774  39.6922  39.8010  39.8010  39.8010  40.5092
    40.5092  40.7399  40.7399  40.7399  41.2196  41.2196  41.2196  41.3390
    41.3390  41.3390  42.4443  42.4443  42.6502  42.6502  42.6502  43.7187
    43.7187  43.7187  44.4623  44.4623  44.4623  45.9819  46.8216  46.8216
    46.8216  47.8114  47.8783  47.8783  48.6582  48.6582  48.6582  49.7320
    50.6995  50.6995  50.6995  51.1381  51.1381  51.1381  51.8486  51.8486
    51.8765  51.8765  51.8765  52.0649  52.0649  52.0649  53.0579  53.0579
    53.0579  53.1099  53.1099  53.1099  55.0936  55.0936  55.0936  55.3038
    55.3038  55.3038  55.5190  55.5190  55.5190  55.6900  55.6900  55.8455

          k =-0.3529-0.3529 0.7058 (  7791 PWs)   bands (ev):

    -7.7174  -7.1066  -7.1003  -6.8133  -6.8133  -6.6977  -6.6977  -6.6396
     4.6817   4.6817   4.9826   4.9940   5.1501   5.1501   5.6090   5.8720
     6.2131   6.2131   6.4723   6.5716   6.5716   6.6699   6.7574   6.7966
     6.9061   7.0507   7.0507   7.1005   7.1005   7.3715   7.7136   8.0069
     9.4087   9.4595   9.4902   9.4902   9.6278   9.9128   9.9128   9.9718
    10.0833  10.0833  10.1510  10.2307  10.2893  10.4073  10.4073  10.4076
    10.4813  10.5008  10.5008  10.5962  10.6020  10.6641  10.8925  10.8925
    10.9594  11.1131  11.1131  11.1863  11.2136  11.2136  11.2248  11.2430
    12.8832  12.8878  12.8883  12.8883  12.8998  13.0397  13.0397  13.0660
    15.8039  17.8504  17.8554  19.1509  19.1509  19.8112  19.8811  19.8811
    21.2947  21.2947  22.3293  22.5104  22.5134  22.5135  22.8191  22.8332
    23.6172  23.6172  23.7314  23.7314  25.6161  25.6619  25.6990  26.6890
    26.6890  27.2777  27.3044  27.4207  27.4754  27.4754  27.8062  30.1123
    30.3996  30.3996  30.6277  31.6131  32.2469  32.2922  33.5286  34.1143
    34.1143  35.0989  35.0989  35.4329  35.8756  35.9586  37.8633  37.8707
    37.8894  38.7125  38.7125  39.6557  39.6557  39.9247  40.5596  40.7425
    40.8456  41.2076  41.2076  41.6208  42.0425  42.0425  42.1075  42.3243
    42.3976  42.6830  42.6830  43.0754  43.0754  43.2837  43.4297  43.4733
    43.5124  43.5124  43.7559  43.7559  44.3610  44.4756  45.2095  45.2095
    46.2081  46.2081  46.8214  46.9302  47.1972  47.3730  48.3066  48.7036
    49.0073  49.0984  50.7160  50.7160  51.0215  51.0215  51.4675  51.4675
    51.4894  51.5402  51.9506  52.0029  52.5652  52.5652  53.0824  53.0824
    53.6914  53.8398  53.8398  54.4561  54.4713  54.4877  54.4877  55.3324
    55.6380  55.6380  55.6894  55.8040  56.0833  56.2740  56.4448  56.4449

          k =-0.1763-0.1763 0.5295 (  7812 PWs)   bands (ev):

    -7.5836  -7.2567  -7.0529  -6.8643  -6.8643  -6.6865  -6.6506  -6.6506
     4.8795   4.8795   4.8843   5.1477   5.3991   5.4098   5.4098   6.0165
     6.1242   6.1242   6.2403   6.4611   6.4611   6.5416   6.7093   6.7210
     6.7210   6.9409   6.9409   7.0499   7.4041   7.6360   7.6499   7.8781
     9.2381   9.4113   9.7885   9.7885   9.8652   9.8652   9.8857   9.8919
     9.9035  10.0198  10.0517  10.0517  10.2447  10.2910  10.3394  10.3394
    10.5067  10.5372  10.5372  10.5546  10.7413  10.7941  10.9423  10.9423
    11.0630  11.0630  11.0749  11.1179  11.1202  11.1281  11.1905  11.1905
    12.5783  12.6374  12.7205  12.7205  13.0896  13.1709  13.1709  13.1878
    16.4846  17.3953  18.4530  19.1491  19.1491  20.1791  20.1791  20.2510
    21.2554  21.9582  21.9582  22.2311  22.2311  22.9786  22.9786  23.1202
    23.2070  23.4759  23.8538  23.8538  24.4453  25.1255  25.7425  26.6541
    26.6541  27.1409  27.1494  27.1494  27.2081  27.9115  28.0597  28.5593
    29.5249  30.6666  32.0507  32.0507  32.5131  32.5131  33.0960  33.1240
    34.5168  35.5397  35.9659  36.4333  36.4333  36.5050  36.7267  36.7267
    37.0554  38.8215  38.8215  38.9037  39.8430  40.1637  40.6152  41.5381
    41.6012  41.6800  41.6800  41.8585  41.9262  42.0325  42.2866  42.2866
    42.8584  42.8584  43.1943  43.1943  43.2043  43.4997  43.7801  43.7801
    43.8429  43.8432  43.9125  43.9125  44.0832  44.2549  44.5857  44.8138
    44.8138  45.6239  46.3503  47.1652  47.1994  47.3940  48.0111  48.0111
    48.2912  49.0818  49.7357  49.8572  49.8572  50.6589  50.6589  51.4297
    51.8392  52.1223  52.1223  52.3566  52.5324  52.5324  52.6446  52.6446
    53.4906  54.2767  54.2767  54.3349  54.5466  54.5466  54.6680  55.0075
    55.6996  55.6997  55.8241  56.0300  56.1650  56.1650  56.3075  56.4283

          k =-0.8827 0.1759 0.1759 (  7811 PWs)   bands (ev):

    -7.5807  -7.2538  -7.0563  -6.8646  -6.8645  -6.6897  -6.6505  -6.6505
     4.8724   4.8821   4.8821   5.1915   5.3457   5.4072   5.4072   6.1183
     6.1296   6.1296   6.1704   6.5367   6.5531   6.5531   6.5999   6.5999
     6.7068   6.9697   6.9697   7.1559   7.2757   7.6388   7.6418   7.9277
     9.2110   9.3984   9.6062   9.6062   9.6368   9.9007   9.9347   9.9347
    10.1297  10.1309  10.2647  10.2647  10.2842  10.3935  10.3997  10.3997
    10.4174  10.4857  10.4857  10.4950  10.6888  10.7267  10.7267  10.8108
    10.9168  11.0906  11.1169  11.1437  11.1437  11.2047  11.2047  11.2674
    12.5351  12.6740  12.7231  12.7231  13.1149  13.1707  13.1722  13.1722
    16.4856  17.3942  18.4500  19.1469  19.1469  20.1654  20.1654  20.2762
    21.2352  21.9926  21.9926  22.2588  22.2588  22.9672  22.9672  23.1257
    23.2451  23.5107  23.8288  23.8288  24.4309  25.1525  25.6889  26.6388
    26.6388  27.1416  27.1416  27.1595  27.1818  27.9059  28.0594  28.5452
    29.5389  30.6237  32.0744  32.0744  32.5435  32.5435  33.1164  33.1340
    34.4781  35.4623  35.9436  36.3997  36.3997  36.4981  36.7219  36.7219
    37.0448  38.8343  38.8343  38.9371  39.8544  40.2430  40.7008  41.5666
    41.5813  41.6674  41.6674  41.8361  41.9445  41.9973  42.2944  42.2944
    42.7812  42.7812  43.2063  43.2063  43.2126  43.4416  43.7723  43.7723
    43.8124  43.8706  43.9128  43.9128  44.1720  44.2712  44.6598  44.8769
    44.8769  45.7145  46.2660  47.1285  47.2137  47.4551  47.9988  47.9988
    48.2647  48.9409  49.6672  49.8643  49.8643  50.6576  50.6576  51.4653
    51.8762  52.1149  52.1149  52.4038  52.5452  52.5452  52.6217  52.6217
    53.5107  54.2800  54.2860  54.2860  54.6254  54.6254  54.6407  55.1791
    55.5655  55.6786  55.6786  56.0801  56.1369  56.1369  56.2148  56.4980

          k =-0.7061 0.3525-0.0003 (  7826 PWs)   bands (ev):

    -7.2384  -7.2384  -7.2356  -7.2349  -6.6769  -6.6699  -6.6699  -6.6697
     5.1879   5.1888   5.1888   5.2345   5.2817   5.4452   5.4452   5.5562
     6.1241   6.1572   6.1572   6.1865   6.5055   6.5055   6.5321   6.6618
     6.7799   7.1596   7.1596   7.3517   7.3596   7.3936   7.3936   7.4549
     9.5642   9.5903   9.5903   9.6594   9.8289   9.8766   9.8766   9.9013
     9.9577  10.1156  10.1344  10.1344  10.1873  10.1873  10.2412  10.3070
    10.4567  10.5040  10.5040  10.5255  10.7952  10.7952  10.8212  10.8393
    11.0196  11.0326  11.0326  11.1224  11.1401  11.1482  11.2101  11.2101
    12.6091  12.7245  12.7245  12.8380  12.9921  13.0321  13.0321  13.0745
    17.8029  17.8220  17.8220  17.8421  20.6207  20.7083  20.7083  20.7503
    21.5299  21.5334  21.5334  21.6245  22.7073  22.7260  22.7260  22.7363
    24.2308  24.2406  24.2406  24.2715  24.4367  24.4999  24.4999  24.5244
    26.6709  26.6709  26.6861  26.6968  28.0871  28.1504  28.1504  28.1727
    30.7907  30.7984  30.8239  30.8239  34.0306  34.1116  34.1116  34.1193
    34.1480  34.1480  34.1771  34.1790  37.6120  37.6807  37.6899  37.6899
    37.7357  37.7510  37.7661  37.7661  41.3437  41.3437  41.3928  41.3928
    41.4051  41.4111  41.4203  41.4836  42.5673  42.5765  42.6126  42.6126
    42.9739  43.0088  43.0088  43.1044  43.5145  43.6055  43.6055  43.7415
    44.2870  44.3841  44.3841  44.4100  44.8267  44.8267  44.9013  44.9578
    45.8136  45.9087  45.9087  45.9894  46.7132  46.7251  46.7251  46.7379
    46.9323  46.9353  46.9471  46.9471  50.3750  50.3929  50.3929  50.5116
    52.0378  52.0941  52.1200  52.1200  53.5100  53.5100  53.5317  53.5379
    55.0286  55.1431  55.1431  55.3795  55.3916  55.4092  55.4092  55.4366
    55.5820  55.9100  55.9100  55.9608  56.0122  56.1118  56.1119  56.1783

          k =-0.3539-0.3539-0.3539 (  7786 PWs)   bands (ev):

    -7.5301  -7.5214  -6.7663  -6.7663  -6.7663  -6.7463  -6.7463  -6.7463
     4.9234   4.9234   4.9234   5.0248   5.0248   5.0248   5.9851   6.0280
     6.1611   6.1611   6.1611   6.5973   6.5973   6.5973   6.6322   6.6322
     6.6322   6.8541   6.8541   7.3339   7.3339   7.3339   7.7461   7.7461
     9.3418   9.3418   9.3418   9.5276   9.5276   9.9550   9.9598   9.9598
     9.9598  10.3162  10.3162  10.3162  10.3400  10.3400  10.3400  10.5795
    10.5795  10.6715  10.6715  10.6715  10.7294  10.8939  10.8939  10.8939
    11.0896  11.0896  11.0896  11.1370  11.1370  11.2458  11.2458  11.2458
    12.8791  12.8791  12.8791  12.8993  12.8993  12.9046  12.9046  12.9046
    16.2048  16.3559  19.4099  19.4099  19.4099  19.5708  19.5708  19.5708
    21.7359  21.7359  21.7360  21.8695  21.8695  21.8695  23.6261  23.6261
    23.6261  23.6607  23.6607  23.6607  24.1601  24.2668  27.4266  27.4266
    27.4266  27.5066  27.5066  27.5066  28.2970  28.2970  28.3465  28.3465
    31.1556  31.1556  31.1556  31.1822  31.1822  31.1822  32.2823  32.3578
    34.3409  34.3409  34.3418  34.3418  38.6694  38.6694  38.6694  38.7562
    38.7562  38.7562  40.1488  40.3301  40.3301  40.3301  40.3317  40.4351
    40.4351  40.4351  41.0174  41.0174  41.0174  41.1706  41.1706  41.1706
    42.8804  42.8804  42.8804  42.9094  42.9094  42.9094  43.1939  43.1939
    43.2403  43.2403  43.7958  43.7958  43.7958  43.8886  43.8886  43.8886
    44.2538  44.3994  48.4811  48.4811  48.6073  48.6073  51.2766  51.2766
    51.2766  51.3302  51.3302  51.3302  51.6664  51.6664  51.6664  51.7521
    51.7521  51.7521  52.7526  52.7526  52.7526  52.7761  52.7761  52.7761
    52.8417  52.8417  52.8417  52.8551  52.8551  52.8551  52.9177  53.4527
    55.2271  55.2271  55.2271  55.7415  55.7416  55.7416  56.2194  56.2195

     the spin up/dw Fermi energies are    11.3942   11.3942 ev

!    total energy              =    -942.02557200 Ry
     Harris-Foulkes estimate   =    -942.02557201 Ry
     estimated scf accuracy    <          7.1E-09 Ry

     The total energy is the sum of the following terms:

     one-electron contribution =     -59.43355964 Ry
     hartree contribution      =     176.62152895 Ry
     xc contribution           =    -297.46295745 Ry
     ewald contribution        =    -761.76293807 Ry
     smearing contrib. (-TS)   =       0.01235421 Ry

     total magnetization       =     0.00 Bohr mag/cell
     absolute magnetization    =    12.37 Bohr mag/cell

     convergence has been achieved in  15 iterations

     Forces acting on atoms (Ry/au):

     atom    1 type  1   force =     0.00000000    0.00000000    0.00000000
     atom    2 type  1   force =     0.00000000    0.00000000    0.00000000
     atom    3 type  1   force =     0.00000000    0.00000000    0.00000000
     atom    4 type  1   force =     0.00000000    0.00000000    0.00000000
     atom    5 type  2   force =     0.00000000    0.00000000    0.00000000
     atom    6 type  2   force =     0.00000000    0.00000000    0.00000000
     atom    7 type  2   force =     0.00000000    0.00000000    0.00000000
     atom    8 type  2   force =     0.00000000    0.00000000    0.00000000
     atom    9 type  3   force =    -0.00000004   -0.00000004   -0.00000004
     atom   10 type  3   force =    -0.00000023    0.00000003    0.00000003
     atom   11 type  3   force =     0.00000003   -0.00000023    0.00000003
     atom   12 type  3   force =     0.00000003    0.00000003   -0.00000023
     atom   13 type  3   force =     0.00000023   -0.00000003   -0.00000003
     atom   14 type  3   force =    -0.00000003    0.00000023   -0.00000003
     atom   15 type  3   force =    -0.00000003   -0.00000003    0.00000023
     atom   16 type  3   force =     0.00000004    0.00000004    0.00000004

     Total force =     0.000001     Total SCF correction =     0.000005
     SCF correction compared to forces is large: reduce conv_thr to get better values
 
     init_run     :     58.32s CPU     59.24s WALL (       1 calls)
     electrons    :   3007.00s CPU   3055.55s WALL (       1 calls)
     forces       :     25.34s CPU     25.41s WALL (       1 calls)

     Called by init_run:
     wfcinit      :     48.42s CPU     49.10s WALL (       1 calls)
     potinit      :      2.36s CPU      2.40s WALL (       1 calls)

     Called by electrons:
     c_bands      :   2529.58s CPU   2571.99s WALL (      15 calls)
     sum_band     :    399.17s CPU    403.99s WALL (      15 calls)
     v_of_rho     :     14.00s CPU     14.15s WALL (      16 calls)
     newd         :     64.33s CPU     65.38s WALL (      16 calls)
     mix_rho      :      1.75s CPU      1.77s WALL (      15 calls)

     Called by c_bands:
     init_us_2    :      4.39s CPU      4.39s WALL (     832 calls)
     cegterg      :   2506.25s CPU   2548.64s WALL (     390 calls)

     Called by *egterg:
     h_psi        :   1246.37s CPU   1261.92s WALL (    1601 calls)
     s_psi        :     90.76s CPU     90.76s WALL (    1601 calls)
     g_psi        :      5.04s CPU      5.03s WALL (    1185 calls)
     cdiaghg      :    670.16s CPU    670.61s WALL (    1575 calls)

     Called by h_psi:
     add_vuspsi   :     90.73s CPU     90.77s WALL (    1601 calls)

     General routines
     calbec       :    141.05s CPU    142.16s WALL (    2017 calls)
     fft          :     17.16s CPU     17.88s WALL (     505 calls)
     ffts         :      0.33s CPU      0.35s WALL (      62 calls)
     fftw         :   1089.14s CPU   1108.02s WALL (  414246 calls)
     interpolate  :      1.84s CPU      1.89s WALL (      62 calls)
 
     Parallel routines
     fft_scatter  :    410.15s CPU    428.43s WALL (  414813 calls)
 
     PWSCF        : 51m30.82s CPU    52m20.40s WALL

 
   This run was terminated on:  14: 1:49   8Jan2015            

=------------------------------------------------------------------------------=
   JOB DONE.
=------------------------------------------------------------------------------=
